   * xtb version 6.4.1 (bd6e46d) compiled by 'conda@4901f00b25ba' on 2021-06-10
          program call               : /home/jeff/miniconda3/bin/xtb input_structure_1.xyz --gfn 2 --ohess normal --parallel 1 --etemp 300 --chrg 0 --uhf 0 -I det_control.in
          number of atoms            :                   118
          number of electrons        :                   370
          charge                     :                     0
          spin                       :                   0.0

   ID    Z sym.   atoms
    1    6 C      1-8, 10-14, 16-20, 22, 23, 38-45, 47-51, 53-57, 59, 60,
                  75-90, 92-96, 98-102, 104, 105
    2    7 N      9, 15, 21, 24, 46, 52, 58, 61, 91, 97, 103, 106
    3    1 H      25-37, 62-74, 107-118

          :  Hamiltonian                  GFN2-xTB          :
 * total energy  :  -199.4011357 Eh     change       -0.5478114E-08 Eh
 * total energy  :  -199.5429712 Eh     change       -0.1418355E+00 Eh
 * total energy  :  -199.6132723 Eh     change       -0.7030112E-01 Eh
 * total energy  :  -199.6474934 Eh     change       -0.3422116E-01 Eh
 * total energy  :  -199.6763862 Eh     change       -0.2889282E-01 Eh
 * total energy  :  -199.7007302 Eh     change       -0.2434396E-01 Eh
 * total energy  :  -199.7212426 Eh     change       -0.2051241E-01 Eh
 * total energy  :  -199.7377448 Eh     change       -0.1650215E-01 Eh
 * total energy  :  -199.7514952 Eh     change       -0.1375047E-01 Eh
 * total energy  :  -199.7623592 Eh     change       -0.1086397E-01 Eh
 * total energy  :  -199.8252669 Eh     change       -0.1306311E-04 Eh
 * total energy  :  -199.8252788 Eh     change       -0.1191133E-04 Eh
 * total energy  :  -199.8252889 Eh     change       -0.1011939E-04 Eh
 * total energy  :  -199.8252973 Eh     change       -0.8395140E-05 Eh
 * total energy  :  -199.8253041 Eh     change       -0.6839824E-05 Eh
 * total energy  :  -199.8253104 Eh     change       -0.6221053E-05 Eh
 * total energy  :  -199.8253178 Eh     change       -0.7407144E-05 Eh
 * total energy  :  -199.8253280 Eh     change       -0.1028171E-04 Eh
 * total energy  :  -199.8253312 Eh     change       -0.3116919E-05 Eh
   *** GEOMETRY OPTIMIZATION CONVERGED AFTER 152 ITERATIONS ***

 final structure:
================
118
 xtb: 6.4.1 (bd6e46d)
C       -10.31042743360289    1.11800791577323   -3.30533536613967
C        -9.54421948905264    0.63268387656146   -2.30912552178492
C       -10.46548996203353    0.11369684689548   -1.31383500183082
C       -10.04242581684244   -0.48707020572510   -0.11008367116645
C       -10.91191560819698   -0.99193490725767    0.86997325117152
C       -10.55922618200886   -1.59963516916402    2.10445170280220
C       -11.71882807829640   -1.93296325145783    2.74324633823528
C       -12.80446642977213   -1.53703911651998    1.91197318922819
N       -12.26610790374432   -0.97436490542360    0.79474604865701
C       -14.15499678575984   -1.69682680464515    2.18525063625296
C       -15.22796559699531   -1.32757239708648    1.38568245489913
C       -16.61228769741101   -1.55606865356356    1.77479872573627
C       -17.36904492013837   -1.08323589281577    0.76734286835828
C       -16.44160827601483   -0.56828449073878   -0.22804282397786
N       -15.16427290014757   -0.73166271409634    0.17711308763796
C       -16.84927631905086    0.00855929029749   -1.42421808124766
C       -16.00495897131996    0.51583544320922   -2.39992350557207
C       -16.35835546201517    1.11871047837610   -3.64088102300431
C       -15.20230372140727    1.46832700248713   -4.27382168826167
C       -14.11315913392062    1.08754393360337   -3.43688052846382
N       -14.64726342943746    0.51992955466598   -2.32380606801045
C       -12.76293235604002    1.25892975190092   -3.70391527797907
C       -11.68915580944554    0.88890259119334   -2.90831682184275
N       -11.74134335080084    0.28117018615500   -1.69834235951248
H       -10.00862823037096    1.58509204422750   -4.22308464700909
H        -8.47514327181896    0.61133559336565   -2.22411765278100
H        -9.55340162798302   -1.75315506695101    2.44413139463479
H       -11.82344951962543   -2.40846779777460    3.69901329612311
H       -12.78307996404050   -0.59316164249030    0.01073616206247
H       -14.39676412839015   -2.16672874511688    3.12864245007620
H       -16.91958375187913   -2.01617350767722    2.69446233900884
H       -18.43791959675485   -1.06686326534162    0.67210348504230
H       -17.91201184025214    0.06789403276524   -1.60957845262983
H       -17.36326011124329    1.25916602382462   -3.98889520342411
H       -15.09886398857897    1.94437013771357   -5.22967469003288
H       -14.13303200412452    0.14593823721415   -1.53522747574852
H       -12.52007651177913    1.73424409382099   -4.64442314050719
C        11.50551293193819   -1.14770702033543    3.50623769418290
C        10.40816853127960   -0.86477184354404    2.77733325150456
C        10.88247840620203   -0.15823171380404    1.60109616050346
C        10.02621448841819    0.31620658223056    0.58819836534208
C        10.45994299252732    1.00890401761145   -0.55527037505385
C         9.65446048998695    1.51668142100248   -1.60940208988421
C        10.48752979600676    2.11358217619519   -2.51124501491586
C        11.81959137652399    1.98235993587999   -2.02765526649476
N        11.75011980371548    1.30991345219146   -0.84520404473411
C        12.97104250250474    2.44778473931277   -2.64532588582752
C        14.27794379046442    2.32712705002683   -2.19408242412555
C        15.41666775444886    2.85339368584976   -2.93290848149156
C        16.50802884296399    2.55513023669813   -2.20400021028285
C        16.02729965364316    1.85039588606254   -1.02565329607728
N        14.68312685803349    1.73121281048356   -1.05360484768270
C        16.86544969326325    1.37787140008533   -0.02356126079258
C        16.45445792333671    0.70386419944582    1.11610477472662
C        17.26102795542636    0.19958626724365    2.17612369681148
C        16.43005761180036   -0.38787908737538    3.08354876980537
C        15.09464621975096   -0.25883740006252    2.60163454451874
N        15.16257888904395    0.40425650309844    1.41735410906304
C        13.94246918943321   -0.72251099101137    3.21931422382368
C        12.63614260383551   -0.61254305402522    2.76635805096158
N        12.21867496391532   -0.02203461124312    1.62099905209707
H        11.57841925738132   -1.66110253631582    4.44575431363868
H         9.37948320470826   -1.09137378535669    2.98130418205905
H         8.58658611734383    1.42997281214035   -1.65814433382088
H        10.21540198533413    2.60056429597930   -3.42736733469881
H        12.53485505350861    1.06083018016202   -0.25419385191675
H        12.83115499378764    2.96142424787774   -3.58650333912668
H        15.34911868097773    3.36993965801782   -3.87128786976952
H        17.53926470913573    2.77138470775834   -2.40796931951642
H        17.92547172953134    1.55053009205266   -0.14120140768936
H        18.32944452743797    0.28239729741578    2.22439890015814
H        16.70232259966237   -0.86897030452917    4.00299624765145
H        14.38049927703529    0.65287036574933    0.82359226932854
H        14.08044062249389   -1.23071548454237    4.16385888159613
C        -8.66800663201299   -0.58274603241375    0.11701210496928
C        -7.45983726263380   -0.64420501873226    0.26642474487462
C        -6.12555351831155   -0.68298372096973    0.39266559257432
C        -4.90882274304407   -0.69650483855609    0.46635746235776
C         4.90638638804478   -0.36507690716682    0.84655733609702
C         6.11926721731328   -0.24293675751688    0.83663792387332
C         7.44946648696842   -0.08126394895204    0.79085311988681
C         8.65291602272974    0.09587226769541    0.71263411170451
C        -2.55582800562763   -2.71685677021979    3.29424955619030
C        -3.52554594509775   -2.18298911908697    2.52569535704699
C        -2.84424057131986   -1.39042789238523    1.51942108460716
C        -3.51456536976666   -0.67123823969045    0.51063360840248
C        -2.85559394567150    0.08386779595071   -0.47570515574025
C        -3.44039623763394    0.82936831668735   -1.53225171861031
C        -2.42173298039099    1.39933049501947   -2.24145220690480
C        -1.19555150231962    1.01484424862718   -1.63108438192420
N        -1.50985706193221    0.22052229993268   -0.57101119285719
C         0.07548476978735    1.39022001759356   -2.04391126644722
C         1.29649607624851    1.05737208762796   -1.48079563434868
C         2.55683217747435    1.54133044150373   -2.01763630812222
C         3.52419575005853    1.03601792375275   -1.22748927241392
C         2.84245233664447    0.24610144431685   -0.21881913534735
N         1.51135030663761    0.27625791663174   -0.39431813799284
C         3.51489525168659   -0.45502663500797    0.80402523251033
C         2.86032915108764   -1.23183148497702    1.77407419306974
C         3.44409700574639   -1.98485921253730    2.82573964322975
C         2.42584360974334   -2.58094817431993    3.51397072083433
C         1.19998447097223   -2.20223271288099    2.89804726635326
N         1.51518277932729   -1.38928561301050    1.85254838346977
C        -0.07111975684626   -2.58871569392467    3.30160120354924
C        -1.29440023488546   -2.24146782904265    2.75041018506620
N        -1.51108057922581   -1.44310948149976    1.67765649175929
H        -2.64840861786706   -3.36454966233046    4.14485781569690
H        -4.59031079166325   -2.29276692445251    2.59969309343271
H        -4.49424528991008    0.91042246196282   -1.71364642599220
H        -2.50212540224342    2.02908816924317   -3.10600548668166
H        -0.86505402510874   -0.21997674581536    0.07639714205924
H         0.11394506279745    2.03018297016816   -2.91515718543580
H         2.65037488861843    2.17718622734594   -2.87695352106823
H         4.58749719513723    1.16209904998386   -1.29103808494665
H         4.49724672359124   -2.05388772487754    3.01720522074774
H         2.50606887959822   -3.22338591747900    4.36922458958275
H         0.87168311562684   -0.94877469828562    1.20385565990995
H        -0.10856604217941   -3.24267506638079    4.16254600534687

          :  Hamiltonian                  GFN2-xTB          :
         :: gradient norm              0.000486643130 Eh/a0 ::
         :: HOMO-LUMO gap              0.911885666065 eV    ::
         :: SCC energy              -203.592862316070 Eh    ::
         :: -> dispersion             -0.163409573336 Eh    ::
         :: repulsion energy           3.769906292841 Eh    ::

    * Orbital Energies and Occupations

         #    Occupation            Energy/Eh            Energy/eV
      -------------------------------------------------------------
         1        2.0000           -0.6844512             -18.6249
       ...           ...                  ...                  ...
       173        2.0000           -0.3871467             -10.5348
       174        2.0000           -0.3734719             -10.1627
       175        2.0000           -0.3728862             -10.1468
       176        2.0000           -0.3721934             -10.1279
       177        2.0000           -0.3719168             -10.1204
       178        2.0000           -0.3712047             -10.1010
       179        2.0000           -0.3710926             -10.0979
       180        2.0000           -0.3695772             -10.0567
       181        2.0000           -0.3687349             -10.0338
       182        2.0000           -0.3685649             -10.0292
       183        2.0000           -0.3643899              -9.9156
       184        2.0000           -0.3560463              -9.6885
       185        2.0000           -0.3463705              -9.4252 (HOMO)
       186                         -0.3128593              -8.5133 (LUMO)
       187                         -0.3022536              -8.2247
       188                         -0.2982604              -8.1161
       189                         -0.2976546              -8.0996
       190                         -0.2972724              -8.0892
       191                         -0.2927802              -7.9670
       192                         -0.2680401              -7.2937
       193                         -0.2589580              -7.0466
       194                         -0.2548530              -6.9349
       195                         -0.2251102              -6.1256
       196                         -0.2250814              -6.1248
       ...                                ...                  ...
       358                          1.6321586              44.4133
      -------------------------------------------------------------
                  HL-Gap            0.0335112 Eh            0.9119 eV

     #   Z          covCN         q      C6AA      α(0)
     1   6 C        3.016    -0.055    29.339     8.885
     2   6 C        3.009    -0.053    29.305     8.880
     3   6 C        3.197     0.087    25.567     8.243
     4   6 C        2.952     0.012    27.752     8.640
     5   6 C        3.096     0.064    26.451     8.429
     6   6 C        3.026    -0.050    29.204     8.864
     7   6 C        3.034    -0.052    29.252     8.871
     8   6 C        3.073     0.064    26.485     8.438
     9   7 N        2.785    -0.081    22.822     7.095
    10   6 C        2.899    -0.055    29.367     8.885
    11   6 C        3.170     0.087    25.719     8.285
    12   6 C        3.012    -0.054    29.315     8.882
    13   6 C        3.009    -0.054    29.317     8.882
    14   6 C        3.174     0.086    25.708     8.281
    15   7 N        1.870    -0.321    29.173     8.006
    16   6 C        2.899    -0.057    29.409     8.892
    17   6 C        3.074     0.065    26.471     8.436
    18   6 C        3.025    -0.051    29.240     8.870
    19   6 C        3.031    -0.051    29.232     8.868
    20   6 C        3.069     0.066    26.461     8.435
    21   7 N        2.787    -0.081    22.814     7.094
    22   6 C        2.899    -0.055    29.363     8.885
    23   6 C        3.175     0.085    25.725     8.283
    24   7 N        1.870    -0.324    29.267     8.019
    25   1 H        0.926     0.019     2.755     2.595
    26   1 H        0.926     0.020     2.728     2.583
    27   1 H        0.926     0.043     2.405     2.425
    28   1 H        0.926     0.041     2.432     2.439
    29   1 H        0.860     0.214     1.037     1.595
    30   1 H        0.925     0.047     2.359     2.402
    31   1 H        0.926     0.019     2.742     2.589
    32   1 H        0.926     0.019     2.741     2.589
    33   1 H        0.926     0.046     2.369     2.407
    34   1 H        0.926     0.042     2.424     2.435
    35   1 H        0.926     0.042     2.425     2.435
    36   1 H        0.860     0.215     1.035     1.594
    37   1 H        0.925     0.047     2.357     2.401
    38   6 C        3.017    -0.055    29.339     8.885
    39   6 C        3.009    -0.053    29.294     8.878
    40   6 C        3.195     0.087    25.571     8.245
    41   6 C        2.952     0.012    27.749     8.640
    42   6 C        3.099     0.064    26.453     8.429
    43   6 C        3.026    -0.050    29.212     8.865
    44   6 C        3.034    -0.052    29.251     8.871
    45   6 C        3.073     0.064    26.487     8.438
    46   7 N        2.785    -0.081    22.811     7.094
    47   6 C        2.899    -0.055    29.363     8.885
    48   6 C        3.171     0.087    25.718     8.285
    49   6 C        3.012    -0.054    29.315     8.882
    50   6 C        3.010    -0.054    29.318     8.882
    51   6 C        3.174     0.086    25.707     8.281
    52   7 N        1.870    -0.321    29.173     8.006
    53   6 C        2.899    -0.057    29.410     8.892
    54   6 C        3.074     0.065    26.471     8.436
    55   6 C        3.025    -0.051    29.240     8.870
    56   6 C        3.031    -0.051    29.231     8.868
    57   6 C        3.068     0.066    26.461     8.435
    58   7 N        2.787    -0.081    22.814     7.094
    59   6 C        2.899    -0.055    29.365     8.885
    60   6 C        3.175     0.086    25.723     8.283
    61   7 N        1.870    -0.325    29.281     8.021
    62   1 H        0.926     0.018     2.758     2.597
    63   1 H        0.926     0.021     2.720     2.579
    64   1 H        0.926     0.043     2.409     2.427
    65   1 H        0.926     0.041     2.429     2.437
    66   1 H        0.860     0.214     1.037     1.595
    67   1 H        0.925     0.047     2.357     2.401
    68   1 H        0.926     0.019     2.742     2.589
    69   1 H        0.926     0.019     2.742     2.589
    70   1 H        0.926     0.046     2.369     2.407
    71   1 H        0.926     0.042     2.424     2.435
    72   1 H        0.926     0.042     2.425     2.435
    73   1 H        0.860     0.214     1.036     1.594
    74   1 H        0.925     0.047     2.359     2.402
    75   6 C        1.995    -0.022    31.629     9.082
    76   6 C        1.963    -0.011    31.369     9.045
    77   6 C        1.964    -0.011    31.354     9.043
    78   6 C        1.994    -0.023    31.643     9.084
    79   6 C        1.994    -0.023    31.648     9.085
    80   6 C        1.964    -0.011    31.350     9.042
    81   6 C        1.963    -0.011    31.372     9.045
    82   6 C        1.996    -0.022    31.625     9.082
    83   6 C        3.018    -0.055    29.333     8.884
    84   6 C        3.008    -0.053    29.290     8.878
    85   6 C        3.195     0.087    25.578     8.246
    86   6 C        2.952     0.012    27.743     8.639
    87   6 C        3.102     0.063    26.458     8.429
    88   6 C        3.025    -0.050    29.222     8.867
    89   6 C        3.037    -0.052    29.250     8.871
    90   6 C        3.073     0.064    26.492     8.439
    91   7 N        2.785    -0.081    22.817     7.094
    92   6 C        2.899    -0.053    29.308     8.876
    93   6 C        3.174     0.085    25.738     8.286
    94   6 C        3.017    -0.055    29.333     8.884
    95   6 C        3.009    -0.053    29.305     8.880
    96   6 C        3.198     0.087    25.565     8.241
    97   7 N        1.870    -0.324    29.246     8.016
    98   6 C        2.952     0.012    27.748     8.640
    99   6 C        3.098     0.064    26.459     8.430
   100   6 C        3.024    -0.050    29.211     8.865
   101   6 C        3.037    -0.052    29.251     8.871
   102   6 C        3.071     0.064    26.491     8.439
   103   7 N        2.786    -0.082    22.831     7.097
   104   6 C        2.899    -0.053    29.315     8.877
   105   6 C        3.172     0.085    25.740     8.287
   106   7 N        1.870    -0.324    29.260     8.018
   107   1 H        0.926     0.018     2.757     2.596
   108   1 H        0.926     0.021     2.722     2.580
   109   1 H        0.926     0.043     2.412     2.429
   110   1 H        0.926     0.041     2.431     2.438
   111   1 H        0.860     0.215     1.034     1.593
   112   1 H        0.925     0.048     2.348     2.396
   113   1 H        0.926     0.019     2.753     2.595
   114   1 H        0.926     0.020     2.728     2.583
   115   1 H        0.926     0.043     2.410     2.428
   116   1 H        0.926     0.041     2.436     2.440
   117   1 H        0.860     0.214     1.036     1.594
   118   1 H        0.925     0.047     2.351     2.398

Wiberg/Mayer (AO) data.
largest (>0.10) Wiberg bond orders for each atom

     #   Z sym  total        # sym  WBO       # sym  WBO       # sym  WBO
 ---------------------------------------------------------------------------
     1   6 C    3.960 --     2 C    1.716    23 C    1.115    25 H    0.973
     2   6 C    3.961 --     1 C    1.716     3 C    1.122    26 H    0.972
     3   6 C    3.916 --    24 N    1.363     4 C    1.241     2 C    1.122
     4   6 C    3.939 --     5 C    1.250     3 C    1.241    75 C    1.192
     5   6 C    3.902 --     4 C    1.250     6 C    1.237     9 N    1.225
     6   6 C    3.955 --     7 C    1.593     5 C    1.237    27 H    0.972
     7   6 C    3.948 --     6 C    1.593     8 C    1.224    28 H    0.973
     8   6 C    3.918 --    10 C    1.344     7 C    1.224     9 N    1.202
     9   7 N    3.590 --     5 C    1.225     8 C    1.202    29 H    0.900
    10   6 C    3.920 --    11 C    1.357     8 C    1.344    30 H    0.964
    11   6 C    3.939 --    10 C    1.357    15 N    1.324    12 C    1.107
    12   6 C    3.963 --    13 C    1.731    11 C    1.107    31 H    0.973
    13   6 C    3.962 --    12 C    1.731    14 C    1.109    32 H    0.973
    14   6 C    3.938 --    16 C    1.354    15 N    1.325    13 C    1.109
    15   7 N    3.001 --    14 C    1.325    11 C    1.324
    16   6 C    3.922 --    14 C    1.354    17 C    1.346    33 H    0.965
    17   6 C    3.921 --    16 C    1.346    18 C    1.216    21 N    1.210
    18   6 C    3.949 --    19 C    1.608    17 C    1.216    34 H    0.973
    19   6 C    3.953 --    18 C    1.608    20 C    1.215    35 H    0.973
    20   6 C    3.916 --    22 C    1.341    19 C    1.215    21 N    1.211
    21   7 N    3.586 --    20 C    1.211    17 C    1.210    36 H    0.900
    22   6 C    3.937 --    23 C    1.367    20 C    1.341    37 H    0.963
    23   6 C    3.924 --    22 C    1.367    24 N    1.298     1 C    1.115
    24   7 N    3.009 --     3 C    1.363    23 C    1.298
    25   1 H    0.999 --     1 C    0.973
    26   1 H    0.999 --     2 C    0.972
    27   1 H    0.998 --     6 C    0.972
    28   1 H    0.998 --     7 C    0.973
    29   1 H    0.954 --     9 N    0.900
    30   1 H    0.997 --    10 C    0.964
    31   1 H    0.999 --    12 C    0.973
    32   1 H    0.999 --    13 C    0.973
    33   1 H    0.997 --    16 C    0.965
    34   1 H    0.998 --    18 C    0.973
    35   1 H    0.998 --    19 C    0.973
    36   1 H    0.954 --    21 N    0.900
    37   1 H    0.997 --    22 C    0.963
    38   6 C    3.960 --    39 C    1.716    60 C    1.115    62 H    0.973
    39   6 C    3.961 --    38 C    1.716    40 C    1.122    63 H    0.972
    40   6 C    3.917 --    61 N    1.361    41 C    1.245    39 C    1.122
    41   6 C    3.939 --    42 C    1.246    40 C    1.245    82 C    1.192
    42   6 C    3.902 --    41 C    1.246    43 C    1.238    46 N    1.226
    43   6 C    3.955 --    44 C    1.592    42 C    1.238    64 H    0.972
    44   6 C    3.948 --    43 C    1.592    45 C    1.224    65 H    0.973
    45   6 C    3.918 --    47 C    1.344    44 C    1.224    46 N    1.202
    46   7 N    3.590 --    42 C    1.226    45 C    1.202    66 H    0.900
    47   6 C    3.921 --    48 C    1.357    45 C    1.344    67 H    0.964
    48   6 C    3.939 --    47 C    1.357    52 N    1.324    49 C    1.107
    49   6 C    3.963 --    50 C    1.731    48 C    1.107    68 H    0.973
    50   6 C    3.962 --    49 C    1.731    51 C    1.109    69 H    0.973
    51   6 C    3.938 --    53 C    1.353    52 N    1.325    50 C    1.109
    52   7 N    3.001 --    51 C    1.325    48 C    1.324
    53   6 C    3.922 --    51 C    1.353    54 C    1.347    70 H    0.965
    54   6 C    3.921 --    53 C    1.347    55 C    1.216    58 N    1.210
    55   6 C    3.949 --    56 C    1.608    54 C    1.216    71 H    0.973
    56   6 C    3.953 --    55 C    1.608    57 C    1.215    72 H    0.973
    57   6 C    3.916 --    59 C    1.342    56 C    1.215    58 N    1.211
    58   7 N    3.586 --    57 C    1.211    54 C    1.210    73 H    0.900
    59   6 C    3.937 --    60 C    1.366    57 C    1.342    74 H    0.964
    60   6 C    3.924 --    59 C    1.366    61 N    1.300    38 C    1.115
    61   7 N    3.009 --    40 C    1.361    60 C    1.300
    62   1 H    0.999 --    38 C    0.973
    63   1 H    0.999 --    39 C    0.972
    64   1 H    0.998 --    43 C    0.972
    65   1 H    0.998 --    44 C    0.973
    66   1 H    0.954 --    46 N    0.900
    67   1 H    0.997 --    47 C    0.964
    68   1 H    0.999 --    49 C    0.973
    69   1 H    0.999 --    50 C    0.973
    70   1 H    0.997 --    53 C    0.965
    71   1 H    0.998 --    55 C    0.973
    72   1 H    0.998 --    56 C    0.973
    73   1 H    0.954 --    58 N    0.900
    74   1 H    0.997 --    59 C    0.964
    75   6 C    3.916 --    76 C    2.461     4 C    1.192    78 C    0.202
    76   6 C    3.925 --    75 C    2.461    77 C    1.311
    77   6 C    3.921 --    78 C    2.459    76 C    1.311
    78   6 C    3.918 --    77 C    2.459    86 C    1.195    75 C    0.202
    79   6 C    3.918 --    80 C    2.458    98 C    1.196    82 C    0.202
    80   6 C    3.921 --    79 C    2.458    81 C    1.311
    81   6 C    3.925 --    82 C    2.461    80 C    1.311
    82   6 C    3.916 --    81 C    2.461    41 C    1.192    79 C    0.202
    83   6 C    3.960 --    84 C    1.716   105 C    1.115   107 H    0.973
    84   6 C    3.961 --    83 C    1.716    85 C    1.124   108 H    0.972
    85   6 C    3.917 --   106 N    1.361    86 C    1.244    84 C    1.124
    86   6 C    3.925 --    85 C    1.244    87 C    1.241    78 C    1.195
    87   6 C    3.903 --    88 C    1.242    86 C    1.241    91 N    1.227
    88   6 C    3.952 --    89 C    1.587    87 C    1.242   109 H    0.972
    89   6 C    3.949 --    88 C    1.587    90 C    1.228   110 H    0.973
    90   6 C    3.914 --    92 C    1.335    89 C    1.228    91 N    1.203
    91   7 N    3.586 --    87 C    1.227    90 C    1.203   111 H    0.897
    92   6 C    3.923 --    93 C    1.372    90 C    1.335   112 H    0.963
    93   6 C    3.926 --    92 C    1.372    97 N    1.294    94 C    1.115
    94   6 C    3.961 --    95 C    1.715    93 C    1.115   113 H    0.973
    95   6 C    3.960 --    94 C    1.715    96 C    1.124   114 H    0.972
    96   6 C    3.917 --    97 N    1.364    98 C    1.238    95 C    1.124
    97   7 N    3.001 --    96 C    1.364    93 C    1.294
    98   6 C    3.926 --    99 C    1.246    96 C    1.238    79 C    1.196
    99   6 C    3.904 --    98 C    1.246   100 C    1.241   103 N    1.226
   100   6 C    3.952 --   101 C    1.588    99 C    1.241   115 H    0.972
   101   6 C    3.949 --   100 C    1.588   102 C    1.227   116 H    0.973
   102   6 C    3.914 --   104 C    1.336   101 C    1.227   103 N    1.204
   103   7 N    3.585 --    99 C    1.226   102 C    1.204   117 H    0.897
   104   6 C    3.922 --   105 C    1.370   102 C    1.336   118 H    0.963
   105   6 C    3.927 --   104 C    1.370   106 N    1.297    83 C    1.115
   106   7 N    3.000 --    85 C    1.361   105 C    1.297
   107   1 H    0.999 --    83 C    0.973
   108   1 H    0.999 --    84 C    0.972
   109   1 H    0.998 --    88 C    0.972
   110   1 H    0.998 --    89 C    0.973
   111   1 H    0.954 --    91 N    0.897
   112   1 H    0.997 --    92 C    0.963
   113   1 H    0.999 --    94 C    0.973
   114   1 H    0.999 --    95 C    0.972
   115   1 H    0.998 --   100 C    0.972
   116   1 H    0.998 --   101 C    0.973
   117   1 H    0.954 --   103 N    0.897
   118   1 H    0.997 --   104 C    0.963
 ---------------------------------------------------------------------------

molecular dipole:
                 x           y           z       tot (Debye)
 q only:       -0.004       0.070      -0.090
   full:       -0.002       0.084      -0.107       0.345

 projected vibrational frequencies (cm⁻¹)
eigval :       -0.00    -0.00    -0.00    -0.00     0.00     0.00
eigval :       -1.70     2.70     3.14     5.01     8.52     9.52
eigval :       15.50    25.51    28.30    30.09    38.19    41.76
eigval :       42.37    42.71    44.80    53.90    56.40    69.05
eigval :       70.26    90.53    94.82    96.37    96.80   109.38
eigval :      113.64   115.79   116.60   117.20   131.73   133.13
eigval :      138.40   139.77   142.38   146.10   148.49   164.77
eigval :      178.96   181.69   185.56   190.42   193.53   195.73
eigval :      201.99   202.86   203.20   212.46   252.98   258.33
eigval :      265.10   265.57   265.71   266.24   267.11   275.35
eigval :      279.64   287.50   298.29   299.17   299.36   321.00
eigval :      323.00   325.73   338.00   339.91   342.67   343.55
eigval :      353.02   354.61   358.88   361.36   362.43   362.67
eigval :      369.30   369.38   369.76   383.35   383.43   393.86
eigval :      394.08   394.23   399.56   419.77   421.49   422.48
eigval :      430.28   430.31   439.48   441.68   442.03   442.95
eigval :      501.25   502.50   504.41   504.68   505.99   513.94
eigval :      600.81   600.89   601.24   605.27   605.55   606.10
eigval :      624.99   627.31   627.32   636.72   636.73   638.32
eigval :      646.97   647.03   649.55   649.98   650.96   651.00
eigval :      653.97   654.00   661.21   661.61   666.30   668.87
eigval :      669.11   670.98   671.66   713.57   713.70   722.73
eigval :      722.80   731.51   731.65   736.96   739.57   741.86
eigval :      742.05   742.18   747.98   748.21   754.96   759.84
eigval :      760.67   761.02   770.84   770.89   783.46   788.27
eigval :      788.64   789.97   798.47   798.48   804.41   806.09
eigval :      806.13   806.66   811.95   812.03   815.05   815.68
eigval :      816.76   818.52   819.12   819.20   827.85   827.86
eigval :      836.11   836.32   837.23   837.69   839.23   839.24
eigval :      842.19   842.21   842.80   842.82   843.52   843.82
eigval :      852.36   852.42   853.05   853.19   853.41   853.48
eigval :      923.45   926.06   959.95   960.18   960.33   973.14
eigval :      973.26   973.38   975.74   976.29   983.18   986.85
eigval :      999.90  1000.13  1005.25  1006.58  1011.61  1013.28
eigval :     1016.78  1017.02  1024.02  1031.82  1032.02  1037.31
eigval :     1062.98  1063.34  1064.39  1065.38  1066.48  1067.22
eigval :     1069.03  1069.50  1069.77  1074.07  1074.73  1075.08
eigval :     1080.30  1091.64  1108.21  1119.62  1122.73  1123.11
eigval :     1133.66  1140.78  1147.82  1157.60  1162.67  1165.25
eigval :     1179.04  1180.66  1182.47  1183.95  1184.45  1199.39
eigval :     1205.64  1207.18  1230.45  1232.45  1232.67  1243.33
eigval :     1247.13  1255.11  1259.35  1263.91  1280.34  1285.28
eigval :     1285.45  1293.47  1305.65  1305.68  1329.46  1337.12
eigval :     1338.28  1339.43  1346.92  1347.19  1360.17  1360.76
eigval :     1364.47  1366.95  1374.32  1374.54  1381.92  1383.18
eigval :     1383.21  1385.98  1387.17  1388.16  1388.81  1391.80
eigval :     1396.99  1419.89  1431.05  1448.88  1459.48  1461.69
eigval :     1475.84  1478.41  1479.80  1490.00  1493.37  1496.00
eigval :     1496.37  1501.68  1504.90  1505.21  1506.63  1508.84
eigval :     1508.96  1513.71  1514.17  1537.19  1548.27  1549.67
eigval :     1550.05  1554.35  1554.97  1555.54  1560.24  1560.28
eigval :     1582.33  1585.09  1585.41  1587.07  1594.28  1594.50
eigval :     2214.63  2219.97  2229.94  2230.14  3072.83  3073.80
eigval :     3076.43  3076.46  3077.63  3077.79  3086.36  3086.52
eigval :     3140.00  3140.06  3143.93  3144.15  3145.16  3145.44
eigval :     3155.17  3155.29  3156.60  3156.63  3159.39  3159.58
eigval :     3159.78  3160.09  3160.52  3160.68  3162.52  3162.81
eigval :     3169.14  3169.17  3171.95  3171.98  3173.54  3174.01
eigval :     3327.43  3329.72  3347.46  3348.50  3355.79  3357.12

   temp. (K)  partition function   enthalpy   heat capacity  entropy
                                   cal/mol     cal/K/mol   cal/K/mol   J/K/mol
 298.15  VIB  0.745E+34            38928.570    253.595    249.295
         ROT  0.740E+09              888.752      2.981     43.565
         INT  0.551E+43            39817.322    256.576    292.860
         TR   0.317E+29             1481.254      4.968     46.628
         TOT                       41298.5761   261.5438   339.4881  1420.4184

       T/K    H(0)-H(T)+PV         H(T)/Eh          T*S/Eh         G(T)/Eh
   ------------------------------------------------------------------------
    298.15    0.658135E-01    0.919045E+00    0.161302E+00    0.757743E+00
   ------------------------------------------------------------------------

         :::::::::::::::::::::::::::::::::::::::::::::::::::::
         ::                  THERMODYNAMIC                  ::
         :::::::::::::::::::::::::::::::::::::::::::::::::::::
         :: total free energy        -199.067588234874 Eh   ::
         ::.................................................::
         :: total energy             -199.825331156299 Eh   ::
         :: zero point energy           0.853231222953 Eh   ::
         :: G(RRHO) w/o ZPVE           -0.095488301528 Eh   ::
         :: G(RRHO) contrib.            0.757742921425 Eh   ::
         :::::::::::::::::::::::::::::::::::::::::::::::::::::

           -------------------------------------------------
          | TOTAL ENERGY             -199.825331156299 Eh   |
          | TOTAL ENTHALPY           -198.906286463121 Eh   |
          | TOTAL FREE ENERGY        -199.067588234874 Eh   |
          | GRADIENT NORM               0.000486570899 Eh/α |
          | HOMO-LUMO GAP               0.911886157317 eV   |
           -------------------------------------------------

 * finished run on 2021/11/18 at 17:28:18.427
