   * xtb version 6.4.1 (bd6e46d) compiled by 'conda@4901f00b25ba' on 2021-06-10
          program call               : /home/jeff/miniconda3/bin/xtb input_structure_1.xyz --gfn 2 --ohess normal --parallel 1 --etemp 300 --chrg 0 --uhf 0 -I det_control.in
          number of atoms            :                   111
          number of electrons        :                   375
          charge                     :                     0
          spin                       :                   0.5

   ID    Z sym.   atoms
    1   27 Co     1, 37, 77
    2    6 C      2-9, 11-15, 17-21, 23, 24, 38-45, 47-51, 53-57, 59, 60,
                  73-76, 78-85, 87-91, 93-97, 99, 100
    3    7 N      10, 16, 22, 25, 46, 52, 58, 61, 86, 92, 98, 101
    4    1 H      26-36, 62-72, 102-111

          :  Hamiltonian                  GFN2-xTB          :
 * total energy  :  -198.5989328 Eh     change        0.8595973E-07 Eh
 * total energy  :  -198.8066500 Eh     change       -0.2077172E+00 Eh
 * total energy  :  -198.9369340 Eh     change       -0.1302840E+00 Eh
 * total energy  :  -199.0138942 Eh     change       -0.7696018E-01 Eh
 * total energy  :  -199.0724803 Eh     change       -0.5858607E-01 Eh
 * total energy  :  -199.1219687 Eh     change       -0.4948842E-01 Eh
 * total energy  :  -199.1685031 Eh     change       -0.4653440E-01 Eh
 * total energy  :  -199.2169121 Eh     change       -0.4840905E-01 Eh
 * total energy  :  -199.2644348 Eh     change       -0.4752266E-01 Eh
 * total energy  :  -199.2989421 Eh     change       -0.3450727E-01 Eh
 * total energy  :  -199.6092227 Eh     change       -0.2717333E-04 Eh
 * total energy  :  -199.6092490 Eh     change       -0.2628343E-04 Eh
 * total energy  :  -199.6092684 Eh     change       -0.1945712E-04 Eh
 * total energy  :  -199.6092846 Eh     change       -0.1618349E-04 Eh
 * total energy  :  -199.6093023 Eh     change       -0.1762729E-04 Eh
 * total energy  :  -199.6093169 Eh     change       -0.1464861E-04 Eh
 * total energy  :  -199.6093255 Eh     change       -0.8638442E-05 Eh
 * total energy  :  -199.6093300 Eh     change       -0.4452949E-05 Eh
 * total energy  :  -199.6093330 Eh     change       -0.2994322E-05 Eh
   *** GEOMETRY OPTIMIZATION CONVERGED AFTER 122 ITERATIONS ***

 final structure:
================
111
 xtb: 6.4.1 (bd6e46d)
Co       17.10014515436122    0.04130652276390    0.09388207837670
C        19.65095249355690   -2.85311304019172    1.76758564143116
C        20.58383107306786   -1.98651018067476    1.31028537588659
C        19.87018372309559   -0.91359739857514    0.68738934692858
C        20.49843260404931    0.22251766275732    0.17004466191541
C        19.76953807751182    1.35094991147361   -0.21073643526373
C        20.38065434749700    2.59995346824192   -0.54753710827802
C        19.37389699447493    3.48758471030071   -0.71574694492879
C        18.15511865262244    2.76054425762290   -0.52828063192630
N        18.41025853296753    1.45169750334949   -0.21661346130840
C        16.90647527048907    3.31023972921005   -0.73219261648165
C        15.75125225787734    2.55809917295830   -0.76562912222828
C        14.48080019326503    3.07937005657078   -1.17837303044486
C        13.63250489641818    2.02885038483918   -1.22942477912644
C        14.37886661702110    0.88004745284200   -0.80536381927477
N        15.67391597430402    1.21438622975604   -0.52755277263029
C        13.81912801749559   -0.36879757204037   -0.63095874249876
C        14.49621192601347   -1.41255183886837   -0.03500753081446
C        13.87163221573316   -2.64859920164277    0.33748751459042
C        14.79688787073072   -3.35597949466205    1.02261199338444
C        15.99329823192214   -2.56589473006317    1.02769360185328
N        15.79791919672254   -1.37913747557725    0.37894053929963
C        17.19017920113157   -2.99936579095335    1.55841575489753
C        18.37802762584957   -2.31961012456008    1.38791291582787
N        18.52469636174070   -1.11931724145311    0.74381619573331
H        19.79155581018742   -3.77585875492856    2.29607052844939
H        21.65140093317728   -2.03449422507535    1.40107473863760
H        21.43815456408425    2.75512749506113   -0.62948802600363
H        19.42966268399922    4.52948944505018   -0.96450463852780
H        16.84083189506970    4.36452720528800   -0.95421250967045
H        14.29390908703198    4.10950797176875   -1.41267689338890
H        12.59591795894031    2.01154821454297   -1.50543716922589
H        12.78465014758476   -0.51304377084158   -0.90273048572115
H        12.85512057515218   -2.90734906592838    0.11223324551814
H        14.70714646825461   -4.32537268412200    1.47341637331245
H        17.21277684051102   -3.95067381931304    2.06793312313892
Co       38.75189178915045   -0.02215571732144    0.08985666029655
C        36.21791484366837    2.79753580170427    1.90610474913233
C        35.28026153495710    1.96473412235434    1.39832545640062
C        35.98828655185680    0.91989179321048    0.72344910753051
C        35.35417266861047   -0.18655345604065    0.15135102850479
C        36.07734132458843   -1.30294704908313   -0.27386981445921
C        35.46097080693514   -2.53518492497814   -0.65934807341045
C        36.46365793697674   -3.42148804934494   -0.85704159043134
C        37.68571173116869   -2.70814644104440   -0.64046317790062
N        37.43602323787277   -1.41084845682925   -0.28007707740191
C        38.93228695676421   -3.25338146534160   -0.86859239704162
C        40.08890399769449   -2.50246018487788   -0.88047476041657
C        41.35482844043440   -3.00737412843513   -1.32619050861096
C        42.20338549088748   -1.95591841963632   -1.34417814718013
C        41.46297033841982   -0.82494787946372   -0.86527142256394
N        40.17023400881969   -1.16956700791163   -0.58929122349551
C        42.02717727095027    0.41321006089299   -0.63663338022849
C        41.35907542704046    1.42606753845347    0.02006862216690
C        41.99195325400625    2.63618431081855    0.45771310844239
C        41.07517835227682    3.30704459625782    1.18933012181327
C        39.87469382681182    2.52393240844987    1.15716749210306
N        40.06037924006651    1.37477549975871    0.44136117292472
C        38.68122527589457    2.93497359007813    1.71316694984411
C        37.48838816554788    2.27485148919122    1.50381700157146
N        37.33490710293570    1.11187208360182    0.79602568647613
H        36.08188617648987    3.69165360531575    2.48281196584776
H        34.21265040367699    2.01688612380589    1.48638896031646
H        34.40301481884422   -2.68193188764707   -0.75039923486996
H        36.40306382135976   -4.45322517018103   -1.14412081628842
H        38.99443387275824   -4.29859890397478   -1.13086826690106
H        41.53864317499295   -4.02736841215063   -1.60342010211880
H        43.23704598868079   -1.92825745483047   -1.63001631795848
H        43.05943568113980    0.56861348553166   -0.91057272016137
H        43.00808078528456    2.90301184782612    0.24049014712758
H        41.17310613361951    4.24845415869749    1.69439108173958
H        38.66529244711367    3.85669224711101    2.27464080322301
C        21.89868398762195    0.24755611376104    0.10377769666538
C        23.10917678777491    0.23693532268361    0.03242606352783
C        32.74348537314627   -0.17545816734531    0.01315295105895
C        33.95398748356789   -0.19926346890177    0.08153631772328
Co       27.92606496162618    0.03744450172274   -0.21036443154002
C        25.30614185412057   -3.25860635425960   -0.49237513724975
C        24.38998023116405   -2.27368743496401   -0.35419075428173
C        25.12534182636335   -1.05381825452388   -0.21245242250445
C        24.50781097064690    0.18903631833623   -0.05642340015086
C        25.24081827439510    1.37617867648930   -0.02996478721431
C        24.62742667464549    2.66584874856395    0.05676322552765
C        25.62506556775453    3.57278673908226   -0.04565337738089
C        26.83997266358471    2.82659869468835   -0.16973708318953
N        26.59465146165411    1.47915229923161   -0.14773673992892
C        28.07874061538324    3.41915475552923   -0.28390755195772
C        29.26168182320362    2.71341890585962   -0.30354833173761
C        30.54614781525136    3.34315496509430   -0.34861175329254
C        31.46258658128173    2.35296787125398   -0.25777312488627
C        30.72745261955436    1.12793728949387   -0.16963083485316
N        29.38424969012236    1.35176391971321   -0.21134548711192
C        31.34476269886693   -0.12074637319045   -0.07004118008734
C        30.61115963552605   -1.30768437179283   -0.09280991722088
C        31.22452159822020   -2.59992223646384   -0.06154933816724
C        30.22691865665989   -3.50162908821465   -0.20280308076716
C        29.01209561403723   -2.75074922558734   -0.29435989505975
N        29.25731551852557   -1.40547923406925   -0.21392354139184
C        27.77338142554910   -3.33763931501005   -0.43458127137855
C        26.59064975854256   -2.63148409265807   -0.42134252680043
N        26.46841157744155   -1.27535866313822   -0.26738925231431
H        25.14910921222696   -4.31171614769987   -0.62194637046817
H        23.31975633200267   -2.34033483897642   -0.36103153617108
H        23.57518477887750    2.82907445341134    0.18058444674416
H        25.56695536390350    4.64374631994602   -0.03202901013425
H        28.12685034249103    4.49671567856745   -0.32752306122178
H        30.70301170811574    4.40108508447278   -0.43044138192986
H        32.53284385743130    2.41976327303489   -0.26386708219185
H        32.27665088369267   -2.76818579701759    0.05582639069621
H        30.28496362631063   -4.57219220896740   -0.23503530280903
H        27.72503279540575   -4.41211339710073   -0.52667712173098

          :  Hamiltonian                  GFN2-xTB          :
         :: gradient norm              0.000436805792 Eh/a0 ::
         :: HOMO-LUMO gap              0.004967047252 eV    ::
         :: SCC energy              -203.031837900773 Eh    ::
         :: -> dispersion             -0.184499592441 Eh    ::
         :: repulsion energy           3.425018531213 Eh    ::

    * Orbital Energies and Occupations

         #    Occupation            Energy/Eh            Energy/eV
      -------------------------------------------------------------
         1        2.0000           -0.6688124             -18.1993
       ...           ...                  ...                  ...
       176        2.0000           -0.3643074              -9.9133
       177        1.9999           -0.3537998              -9.6274
       178        1.9182           -0.3467934              -9.4367
       179        1.9153           -0.3467587              -9.4358
       180        1.9085           -0.3466817              -9.4337
       181        1.9028           -0.3466208              -9.4320
       182        1.9001           -0.3465925              -9.4313
       183        1.8719           -0.3463404              -9.4244
       184        1.8252           -0.3460164              -9.4156
       185        1.8240           -0.3460096              -9.4154
       186        1.8223           -0.3459993              -9.4151
       187        1.4299           -0.3446259              -9.3777
       188        1.3816           -0.3445115              -9.3746 (HOMO)
       189        1.3002           -0.3443288              -9.3697 (LUMO)
       190                         -0.3100475              -8.4368
       191                         -0.2987722              -8.1300
       192                         -0.2959496              -8.0532
       193                         -0.2959472              -8.0531
       194                         -0.2958682              -8.0510
       195                         -0.2875938              -7.8258
       196                         -0.2645868              -7.1998
       197                         -0.2615993              -7.1185
       198                         -0.2570462              -6.9946
       199                         -0.2565472              -6.9810
       ...                                ...                  ...
       363                          1.4119700              38.4217
      -------------------------------------------------------------
                  HL-Gap            0.0001827 Eh            0.0050 eV

     #   Z          covCN         q      C6AA      α(0)
     1  27 Co       3.088     0.099   140.949    24.324
     2   6 C        3.023    -0.053    29.295     8.878
     3   6 C        3.021    -0.052    29.268     8.874
     4   6 C        3.189     0.072    25.943     8.309
     5   6 C        2.956     0.019    27.580     8.614
     6   6 C        3.187     0.072    25.948     8.311
     7   6 C        3.023    -0.051    29.236     8.869
     8   6 C        3.023    -0.053    29.298     8.879
     9   6 C        3.176     0.071    26.020     8.330
    10   7 N        2.640    -0.130    23.825     7.249
    11   6 C        2.904    -0.050    29.230     8.865
    12   6 C        3.172     0.072    26.015     8.331
    13   6 C        3.021    -0.052    29.274     8.875
    14   6 C        3.021    -0.052    29.277     8.876
    15   6 C        3.172     0.073    26.009     8.330
    16   7 N        2.640    -0.129    23.799     7.245
    17   6 C        2.904    -0.051    29.270     8.871
    18   6 C        3.173     0.073    26.009     8.330
    19   6 C        3.021    -0.052    29.277     8.876
    20   6 C        3.021    -0.052    29.275     8.875
    21   6 C        3.172     0.072    26.018     8.332
    22   7 N        2.641    -0.128    23.796     7.245
    23   6 C        2.904    -0.049    29.228     8.865
    24   6 C        3.175     0.071    26.027     8.332
    25   7 N        2.640    -0.129    23.816     7.248
    26   1 H        0.926     0.034     2.526     2.485
    27   1 H        0.926     0.036     2.501     2.473
    28   1 H        0.926     0.034     2.526     2.485
    29   1 H        0.926     0.034     2.528     2.486
    30   1 H        0.926     0.050     2.325     2.384
    31   1 H        0.926     0.034     2.523     2.484
    32   1 H        0.926     0.034     2.525     2.485
    33   1 H        0.926     0.049     2.333     2.388
    34   1 H        0.926     0.034     2.525     2.485
    35   1 H        0.926     0.034     2.524     2.484
    36   1 H        0.926     0.050     2.324     2.384
    37  27 Co       3.091     0.099   140.949    24.324
    38   6 C        3.023    -0.053    29.295     8.878
    39   6 C        3.021    -0.052    29.268     8.874
    40   6 C        3.188     0.072    25.946     8.310
    41   6 C        2.956     0.019    27.578     8.614
    42   6 C        3.186     0.072    25.953     8.312
    43   6 C        3.022    -0.051    29.236     8.869
    44   6 C        3.023    -0.053    29.298     8.879
    45   6 C        3.175     0.071    26.024     8.331
    46   7 N        2.641    -0.130    23.824     7.249
    47   6 C        2.904    -0.049    29.228     8.865
    48   6 C        3.172     0.072    26.018     8.332
    49   6 C        3.020    -0.052    29.274     8.875
    50   6 C        3.021    -0.052    29.277     8.875
    51   6 C        3.172     0.073    26.013     8.331
    52   7 N        2.642    -0.128    23.797     7.245
    53   6 C        2.904    -0.051    29.268     8.871
    54   6 C        3.172     0.073    26.010     8.331
    55   6 C        3.021    -0.052    29.277     8.875
    56   6 C        3.021    -0.052    29.275     8.875
    57   6 C        3.172     0.072    26.020     8.332
    58   7 N        2.642    -0.128    23.793     7.244
    59   6 C        2.904    -0.049    29.225     8.864
    60   6 C        3.175     0.071    26.030     8.332
    61   7 N        2.641    -0.129    23.814     7.248
    62   1 H        0.926     0.034     2.526     2.485
    63   1 H        0.926     0.036     2.501     2.473
    64   1 H        0.926     0.034     2.525     2.485
    65   1 H        0.926     0.034     2.527     2.486
    66   1 H        0.926     0.050     2.325     2.384
    67   1 H        0.926     0.035     2.523     2.484
    68   1 H        0.926     0.034     2.524     2.485
    69   1 H        0.926     0.049     2.332     2.388
    70   1 H        0.926     0.034     2.524     2.485
    71   1 H        0.926     0.034     2.524     2.484
    72   1 H        0.926     0.050     2.324     2.384
    73   6 C        1.989    -0.029    31.828     9.111
    74   6 C        1.990    -0.029    31.815     9.109
    75   6 C        1.990    -0.029    31.812     9.109
    76   6 C        1.989    -0.029    31.830     9.111
    77  27 Co       3.058     0.098   140.973    24.326
    78   6 C        3.024    -0.053    29.293     8.878
    79   6 C        3.023    -0.052    29.272     8.875
    80   6 C        3.194     0.072    25.896     8.297
    81   6 C        2.956     0.019    27.591     8.615
    82   6 C        3.192     0.072    25.908     8.301
    83   6 C        3.024    -0.051    29.237     8.869
    84   6 C        3.024    -0.053    29.296     8.878
    85   6 C        3.181     0.071    25.992     8.322
    86   7 N        2.632    -0.131    23.846     7.253
    87   6 C        2.905    -0.048    29.194     8.860
    88   6 C        3.180     0.071    25.995     8.323
    89   6 C        3.024    -0.053    29.293     8.878
    90   6 C        3.023    -0.052    29.270     8.874
    91   6 C        3.194     0.072    25.898     8.298
    92   7 N        2.632    -0.131    23.841     7.252
    93   6 C        2.956     0.019    27.591     8.616
    94   6 C        3.192     0.072    25.906     8.301
    95   6 C        3.024    -0.051    29.239     8.870
    96   6 C        3.024    -0.053    29.296     8.878
    97   6 C        3.181     0.071    25.990     8.322
    98   7 N        2.632    -0.131    23.845     7.252
    99   6 C        2.905    -0.048    29.194     8.860
   100   6 C        3.181     0.071    25.994     8.323
   101   7 N        2.632    -0.130    23.838     7.251
   102   1 H        0.926     0.034     2.529     2.487
   103   1 H        0.926     0.036     2.500     2.472
   104   1 H        0.926     0.034     2.534     2.489
   105   1 H        0.926     0.034     2.531     2.488
   106   1 H        0.926     0.050     2.320     2.382
   107   1 H        0.926     0.034     2.529     2.487
   108   1 H        0.926     0.036     2.501     2.473
   109   1 H        0.926     0.034     2.533     2.489
   110   1 H        0.926     0.034     2.531     2.488
   111   1 H        0.926     0.050     2.319     2.382

Wiberg/Mayer (AO) data.
largest (>0.10) Wiberg bond orders for each atom

     #   Z sym  total        # sym  WBO       # sym  WBO       # sym  WBO
 ---------------------------------------------------------------------------
     1  27 Co   3.368 --    22 N    0.726    16 N    0.726    25 N    0.724
                            10 N    0.723
     2   6 C    3.953 --     3 C    1.641    24 C    1.174    26 H    0.972
     3   6 C    3.958 --     2 C    1.641     4 C    1.183    27 H    0.969
     4   6 C    3.922 --    25 N    1.262     5 C    1.258     3 C    1.183
     5   6 C    3.945 --     6 C    1.263     4 C    1.258    73 C    1.167
     6   6 C    3.922 --     5 C    1.263    10 N    1.259     7 C    1.182
     7   6 C    3.957 --     8 C    1.642     6 C    1.182    28 H    0.967
     8   6 C    3.953 --     7 C    1.642     9 C    1.174    29 H    0.972
     9   6 C    3.930 --    11 C    1.356    10 N    1.229     8 C    1.174
    10   7 N    3.514 --     6 C    1.259     9 C    1.229     1 Co   0.723
    11   6 C    3.936 --    12 C    1.358     9 C    1.356    30 H    0.964
    12   6 C    3.935 --    11 C    1.358    16 N    1.238    13 C    1.166
    13   6 C    3.957 --    14 C    1.657    12 C    1.166    31 H    0.972
    14   6 C    3.955 --    13 C    1.657    15 C    1.165    32 H    0.972
    15   6 C    3.937 --    17 C    1.356    16 N    1.242    14 C    1.165
    16   7 N    3.510 --    15 C    1.242    12 C    1.238     1 Co   0.726
    17   6 C    3.933 --    18 C    1.356    15 C    1.356    33 H    0.964
    18   6 C    3.937 --    17 C    1.356    22 N    1.241    19 C    1.165
    19   6 C    3.955 --    20 C    1.656    18 C    1.165    34 H    0.972
    20   6 C    3.957 --    19 C    1.656    21 C    1.166    35 H    0.972
    21   6 C    3.935 --    23 C    1.356    22 N    1.239    20 C    1.166
    22   7 N    3.510 --    18 C    1.241    21 C    1.239     1 Co   0.726
    23   6 C    3.937 --    24 C    1.359    21 C    1.356    36 H    0.964
    24   6 C    3.930 --    23 C    1.359    25 N    1.226     2 C    1.174
    25   7 N    3.514 --     4 C    1.262    24 C    1.226     1 Co   0.724
    26   1 H    0.998 --     2 C    0.972
    27   1 H    0.998 --     3 C    0.969
    28   1 H    0.998 --     7 C    0.967
    29   1 H    0.998 --     8 C    0.972
    30   1 H    0.996 --    11 C    0.964
    31   1 H    0.998 --    13 C    0.972
    32   1 H    0.998 --    14 C    0.972
    33   1 H    0.996 --    17 C    0.964
    34   1 H    0.998 --    19 C    0.972
    35   1 H    0.998 --    20 C    0.972
    36   1 H    0.996 --    23 C    0.964
    37  27 Co   3.372 --    58 N    0.726    52 N    0.726    61 N    0.724
                            46 N    0.723
    38   6 C    3.953 --    39 C    1.641    60 C    1.174    62 H    0.972
    39   6 C    3.958 --    38 C    1.641    40 C    1.183    63 H    0.969
    40   6 C    3.922 --    61 N    1.262    41 C    1.258    39 C    1.183
    41   6 C    3.944 --    42 C    1.262    40 C    1.258    76 C    1.167
    42   6 C    3.922 --    41 C    1.262    46 N    1.259    43 C    1.182
    43   6 C    3.958 --    44 C    1.641    42 C    1.182    64 H    0.967
    44   6 C    3.954 --    43 C    1.641    45 C    1.174    65 H    0.972
    45   6 C    3.930 --    47 C    1.356    46 N    1.229    44 C    1.174
    46   7 N    3.514 --    42 C    1.259    45 C    1.229    37 Co   0.723
    47   6 C    3.936 --    48 C    1.357    45 C    1.356    66 H    0.964
    48   6 C    3.935 --    47 C    1.357    52 N    1.238    49 C    1.166
    49   6 C    3.957 --    50 C    1.657    48 C    1.166    67 H    0.972
    50   6 C    3.955 --    49 C    1.657    51 C    1.165    68 H    0.972
    51   6 C    3.937 --    53 C    1.356    52 N    1.242    50 C    1.165
    52   7 N    3.510 --    51 C    1.242    48 C    1.238    37 Co   0.726
    53   6 C    3.933 --    54 C    1.356    51 C    1.356    69 H    0.964
    54   6 C    3.937 --    53 C    1.356    58 N    1.241    55 C    1.165
    55   6 C    3.955 --    56 C    1.656    54 C    1.165    70 H    0.972
    56   6 C    3.957 --    55 C    1.656    57 C    1.166    71 H    0.972
    57   6 C    3.935 --    59 C    1.356    58 N    1.239    56 C    1.166
    58   7 N    3.510 --    54 C    1.241    57 C    1.239    37 Co   0.726
    59   6 C    3.936 --    60 C    1.359    57 C    1.356    72 H    0.964
    60   6 C    3.930 --    59 C    1.359    61 N    1.226    38 C    1.174
    61   7 N    3.514 --    40 C    1.262    60 C    1.226    37 Co   0.724
    62   1 H    0.998 --    38 C    0.972
    63   1 H    0.998 --    39 C    0.969
    64   1 H    0.998 --    43 C    0.967
    65   1 H    0.998 --    44 C    0.972
    66   1 H    0.996 --    47 C    0.964
    67   1 H    0.998 --    49 C    0.972
    68   1 H    0.998 --    50 C    0.972
    69   1 H    0.996 --    53 C    0.964
    70   1 H    0.998 --    55 C    0.972
    71   1 H    0.998 --    56 C    0.972
    72   1 H    0.996 --    59 C    0.964
    73   6 C    3.926 --    74 C    2.583     5 C    1.167
    74   6 C    3.927 --    73 C    2.583    81 C    1.166
    75   6 C    3.927 --    76 C    2.582    93 C    1.166
    76   6 C    3.926 --    75 C    2.582    41 C    1.167
    77  27 Co   3.320 --   101 N    0.719    98 N    0.719    92 N    0.719
                            86 N    0.719
    78   6 C    3.954 --    79 C    1.642   100 C    1.174   102 H    0.972
    79   6 C    3.956 --    78 C    1.642    80 C    1.182   103 H    0.969
    80   6 C    3.922 --   101 N    1.264    81 C    1.259    79 C    1.182
    81   6 C    3.937 --    82 C    1.263    80 C    1.259    74 C    1.166
    82   6 C    3.923 --    81 C    1.263    86 N    1.262    83 C    1.182
    83   6 C    3.956 --    84 C    1.642    82 C    1.182   104 H    0.967
    84   6 C    3.954 --    83 C    1.642    85 C    1.174   105 H    0.972
    85   6 C    3.929 --    87 C    1.357    86 N    1.229    84 C    1.174
    86   7 N    3.506 --    82 C    1.262    85 C    1.229    77 Co   0.719
    87   6 C    3.932 --    88 C    1.360    85 C    1.357   106 H    0.963
    88   6 C    3.929 --    87 C    1.360    92 N    1.226    89 C    1.174
    89   6 C    3.954 --    90 C    1.642    88 C    1.174   107 H    0.972
    90   6 C    3.956 --    89 C    1.642    91 C    1.182   108 H    0.969
    91   6 C    3.922 --    92 N    1.264    93 C    1.259    90 C    1.182
    92   7 N    3.506 --    91 C    1.264    88 C    1.226    77 Co   0.719
    93   6 C    3.937 --    94 C    1.262    91 C    1.259    75 C    1.166
    94   6 C    3.923 --    93 C    1.262    98 N    1.262    95 C    1.182
    95   6 C    3.956 --    96 C    1.642    94 C    1.182   109 H    0.967
    96   6 C    3.954 --    95 C    1.642    97 C    1.175   110 H    0.972
    97   6 C    3.929 --    99 C    1.357    98 N    1.228    96 C    1.175
    98   7 N    3.506 --    94 C    1.262    97 C    1.228    77 Co   0.719
    99   6 C    3.932 --   100 C    1.360    97 C    1.357   111 H    0.963
   100   6 C    3.929 --    99 C    1.360   101 N    1.226    78 C    1.174
   101   7 N    3.506 --    80 C    1.264   100 C    1.226    77 Co   0.719
   102   1 H    0.998 --    78 C    0.972
   103   1 H    0.998 --    79 C    0.969
   104   1 H    0.998 --    83 C    0.967
   105   1 H    0.998 --    84 C    0.972
   106   1 H    0.996 --    87 C    0.963
   107   1 H    0.998 --    89 C    0.972
   108   1 H    0.998 --    90 C    0.969
   109   1 H    0.998 --    95 C    0.967
   110   1 H    0.998 --    96 C    0.972
   111   1 H    0.996 --    99 C    0.963
 ---------------------------------------------------------------------------

molecular dipole:
                 x           y           z       tot (Debye)
 q only:        0.016      -0.002      -0.009
   full:        0.016      -0.003      -0.028       0.082

 projected vibrational frequencies (cm⁻¹)
eigval :       -0.00    -0.00    -0.00    -0.00     0.00     0.00
eigval :       -3.74     3.95     6.76     9.17    10.80    11.80
eigval :       20.58    25.74    26.06    32.05    32.71    35.88
eigval :       52.72    57.96    61.72    68.12    74.11    96.75
eigval :       99.12   106.20   111.36   114.35   119.07   121.77
eigval :      125.24   129.02   142.58   188.36   190.95   193.54
eigval :      193.98   210.08   215.81   223.44   224.59   224.83
eigval :      226.37   229.58   233.54   242.20   242.36   246.77
eigval :      246.96   250.24   250.27   250.90   251.50   265.87
eigval :      267.84   271.01   272.14   272.79   273.58   274.54
eigval :      284.68   284.97   308.16   318.21   323.90   324.84
eigval :      331.89   339.19   339.86   350.55   351.35   361.37
eigval :      364.10   368.08   374.82   377.75   381.23   381.92
eigval :      387.09   390.71   390.77   395.99   397.03   402.04
eigval :      406.27   406.66   408.60   421.90   424.58   433.11
eigval :      437.15   438.77   440.01   457.12   462.43   462.71
eigval :      468.97   500.74   503.71   517.14   519.75   601.59
eigval :      611.91   619.63   619.92   620.77   622.10   623.06
eigval :      623.11   625.43   625.54   631.55   635.23   636.89
eigval :      637.11   643.65   643.76   653.37   657.99   659.23
eigval :      659.30   666.99   667.45   671.73   673.83   674.76
eigval :      674.85   723.24   723.33   723.92   724.00   754.68
eigval :      759.45   760.73   763.68   764.72   766.48   769.84
eigval :      770.28   779.13   779.31   781.16   781.29   794.70
eigval :      795.37   800.28   800.31   803.13   804.91   805.24
eigval :      805.85   806.98   806.99   810.55   810.66   816.35
eigval :      817.43   818.67   818.86   825.68   825.85   832.77
eigval :      833.22   834.63   834.94   836.62   836.89   841.74
eigval :      841.84   842.81   843.54   844.11   844.40   845.00
eigval :      845.09   845.20   845.25   855.93   856.52   886.58
eigval :      888.04   957.56   958.92   991.40   991.74  1001.62
eigval :     1003.66  1003.84  1005.81  1018.07  1018.60  1020.21
eigval :     1021.54  1022.48  1026.48  1027.02  1027.05  1034.53
eigval :     1035.61  1035.62  1036.58  1040.24  1042.00  1059.14
eigval :     1060.29  1065.09  1065.26  1067.49  1068.10  1070.60
eigval :     1071.27  1072.66  1073.52  1074.96  1075.38  1092.09
eigval :     1100.29  1132.21  1139.89  1140.03  1142.73  1159.04
eigval :     1163.18  1168.54  1173.26  1173.56  1182.82  1190.56
eigval :     1208.62  1224.89  1225.11  1244.33  1244.72  1246.86
eigval :     1261.10  1281.19  1281.31  1291.55  1299.60  1304.45
eigval :     1305.00  1305.95  1308.62  1316.76  1317.16  1318.90
eigval :     1320.39  1323.18  1329.50  1329.68  1330.86  1331.00
eigval :     1333.51  1336.85  1337.56  1344.10  1347.03  1352.32
eigval :     1354.99  1355.55  1355.58  1371.22  1373.17  1462.03
eigval :     1462.77  1463.27  1466.74  1467.20  1479.56  1482.21
eigval :     1493.77  1499.25  1502.95  1503.37  1504.00  1511.38
eigval :     1511.85  1518.12  1526.11  1529.96  1531.29  1532.67
eigval :     1534.84  1537.68  1540.24  1542.74  1543.27  1555.88
eigval :     1556.40  1558.87  1559.89  1571.25  1571.93  1582.45
eigval :     1583.09  1589.99  1611.85  1612.53  1612.92  2262.75
eigval :     2266.67  3092.66  3092.85  3093.49  3093.50  3093.60
eigval :     3093.63  3094.82  3095.10  3149.64  3149.85  3149.99
eigval :     3150.33  3154.61  3154.70  3155.28  3155.52  3155.79
eigval :     3155.87  3156.05  3156.18  3163.41  3163.63  3163.85
eigval :     3164.21  3168.96  3169.07  3171.05  3171.44  3172.62
eigval :     3173.00  3173.31  3173.49

   temp. (K)  partition function   enthalpy   heat capacity  entropy
                                   cal/mol     cal/K/mol   cal/K/mol   J/K/mol
 298.15  VIB  0.373E+30            36547.651    243.066    226.913
         ROT  0.272E+09              888.752      2.981     41.575
         INT  0.101E+39            37436.404    246.047    268.488
         TR   0.375E+29             1481.254      4.968     46.966
         TOT                       38917.6576   251.0149   315.4537  1319.8585

       T/K    H(0)-H(T)+PV         H(T)/Eh          T*S/Eh         G(T)/Eh
   ------------------------------------------------------------------------
    298.15    0.620192E-01    0.838562E+00    0.149882E+00    0.688680E+00
   ------------------------------------------------------------------------

         :::::::::::::::::::::::::::::::::::::::::::::::::::::
         ::                  THERMODYNAMIC                  ::
         :::::::::::::::::::::::::::::::::::::::::::::::::::::
         :: total free energy        -198.920653345388 Eh   ::
         ::.................................................::
         :: total energy             -199.609332873130 Eh   ::
         :: zero point energy           0.776542544207 Eh   ::
         :: G(RRHO) w/o ZPVE           -0.087863016465 Eh   ::
         :: G(RRHO) contrib.            0.688679527742 Eh   ::
         :::::::::::::::::::::::::::::::::::::::::::::::::::::

           -------------------------------------------------
          | TOTAL ENERGY             -199.609332873130 Eh   |
          | TOTAL ENTHALPY           -198.770771093780 Eh   |
          | TOTAL FREE ENERGY        -198.920653345388 Eh   |
          | GRADIENT NORM               0.000436693474 Eh/α |
          | HOMO-LUMO GAP               0.004971027323 eV   |
           -------------------------------------------------

 * finished run on 2021/11/19 at 11:11:07.274
