   * xtb version 6.4.1 (bd6e46d) compiled by 'conda@4901f00b25ba' on 2021-06-10
          program call               : /home/jeff/miniconda3/bin/xtb input_structure_1.xyz --gfn 2 --ohess normal --parallel 1 --etemp 300 --chrg 0 --uhf 0 -I det_control.in
          number of atoms            :                   115
          number of electrons        :                   394
          charge                     :                     0
          spin                       :                   0.0

   ID    Z sym.   atoms
    1   28 Ni     1, 37, 81
    2    6 C      2-9, 11-15, 17-21, 23, 24, 38-45, 47-51, 53-57, 59, 60,
                  73-80, 82-89, 91-95, 97-101, 103, 104
    3    7 N      10, 16, 22, 25, 46, 52, 58, 61, 90, 96, 102, 105
    4    1 H      26-36, 62-72, 106-115

          :  Hamiltonian                  GFN2-xTB          :
 * total energy  :  -210.4894463 Eh     change       -0.2597960E-07 Eh
 * total energy  :  -210.6976345 Eh     change       -0.2081882E+00 Eh
 * total energy  :  -210.8229682 Eh     change       -0.1253338E+00 Eh
 * total energy  :  -210.8910849 Eh     change       -0.6811668E-01 Eh
 * total energy  :  -210.9385868 Eh     change       -0.4750188E-01 Eh
 * total energy  :  -210.9732510 Eh     change       -0.3466423E-01 Eh
 * total energy  :  -210.9974158 Eh     change       -0.2416479E-01 Eh
 * total energy  :  -211.0144034 Eh     change       -0.1698756E-01 Eh
 * total energy  :  -211.0296561 Eh     change       -0.1525275E-01 Eh
 * total energy  :  -211.0480997 Eh     change       -0.1844357E-01 Eh
 * total energy  :  -211.5285396 Eh     change       -0.2301960E-03 Eh
 * total energy  :  -211.5286985 Eh     change       -0.1588973E-03 Eh
 * total energy  :  -211.5287822 Eh     change       -0.8372284E-04 Eh
 * total energy  :  -211.5288376 Eh     change       -0.5540476E-04 Eh
 * total energy  :  -211.5288538 Eh     change       -0.1613430E-04 Eh
 * total energy  :  -211.5288625 Eh     change       -0.8691640E-05 Eh
 * total energy  :  -211.5288698 Eh     change       -0.7372739E-05 Eh
 * total energy  :  -211.5288765 Eh     change       -0.6633823E-05 Eh
 * total energy  :  -211.5288813 Eh     change       -0.4875676E-05 Eh
   *** GEOMETRY OPTIMIZATION CONVERGED AFTER 60 ITERATIONS ***

 final structure:
================
115
 xtb: 6.4.1 (bd6e46d)
Ni       14.48974264333275   -0.00040960484516   -0.00524808075818
C        16.99308297901750   -3.40930746772489    0.04652494562162
C        17.94376343473653   -2.44787652984874    0.04058426822090
C        17.25313465597008   -1.19360256362101    0.01939816321169
C        17.91815552347053    0.03620930523440    0.00598462863957
C        17.22748911524494    1.25169465989341   -0.00276166665873
C        17.89136758602948    2.52049043041568   -0.00512182340569
C        16.92045531982396    3.46152280509499    0.00115245993556
C        15.67130159769322    2.76071272674132    0.00470144549205
N        15.87459586162684    1.40640037565719    0.00098860854265
C        14.44954129842178    3.40136713130213    0.01039131275926
C        13.24310461815098    2.73246294232536    0.00114755548289
C        11.97441601742761    3.40248496455276   -0.00337719859351
C        11.02933856112385    2.43802337460175   -0.02590111199848
C        11.72475184702561    1.18279449171811   -0.03262456894759
N        13.07635252672493    1.37681520384605   -0.01444266329381
C        11.07944989977290   -0.03679218020846   -0.05451736411063
C        11.75073120825642   -1.24245926515621   -0.04955620242104
C        11.08245652571297   -2.51236435631544   -0.06280955245733
C        12.04780559966556   -3.45651614061767   -0.03940329249234
C        13.30164197396708   -2.75947883242567   -0.01431676713088
N        13.10598634502569   -1.40764714092007   -0.02237632955266
C        14.52186431914733   -3.40227050712391    0.01402803835191
C        15.72944267976513   -2.73541270549741    0.02670578942251
N        15.90389104482981   -1.37712138102549    0.01276927707882
H        17.11294483020997   -4.47510250299324    0.06133815849114
H        19.01124686829719   -2.55167795844758    0.04978207003071
H        18.95651986953926    2.64698507827330   -0.00933235007637
H        17.01763844842021    4.52979175587675    0.00245756014015
H        14.43823699064230    4.48058306094044    0.01820731595326
H        11.85182646003583    4.46824730942762    0.00799319386688
H         9.96130048013184    2.53894726190960   -0.03648232642113
H        10.00050953097224   -0.04823721120476   -0.07253302561098
H        10.01698378297201   -2.63612768135709   -0.08567159480231
H        11.94808862974195   -4.52476335095052   -0.03942341287249
H        14.53369599208164   -4.48146786395202    0.02289030151984
Ni       41.36152824237387    0.03088008562900   -0.00304050871548
C        38.86831101630081    3.38925007619885    0.62829184741849
C        37.91459390937101    2.44754534902205    0.44995377491994
C        38.60138200382520    1.21237610589547    0.21865335174715
C        37.93303834080189    0.00371364014876    0.00215366569401
C        38.62015246086056   -1.19561694794290   -0.20739864459858
C        37.95224571221329   -2.44403716644043   -0.42210501284066
C        38.92017370858045   -3.37394938241426   -0.58501009303412
C        40.17153303967799   -2.68646585661818   -0.47089444954445
N        39.97256977794290   -1.35158411802086   -0.23864699219343
C        41.39117399167640   -3.31991149978724   -0.59078413885095
C        42.59960878549627   -2.66196350305987   -0.49190472311878
C        43.86607022802313   -3.32254407722416   -0.62683411265070
C        44.81414011717990   -2.37241142080197   -0.47759419778649
C        44.12276299947945   -1.13570081268062   -0.25010069377989
N        42.77061520037534   -1.32645277452590   -0.26178741477894
C        44.77190986560473    0.06477473034435   -0.04592709789225
C        44.10443604832654    1.25083143051910    0.18212991236802
C        44.77682560435579    2.49889282781345    0.40495628350184
C        43.81438512342193    3.42686413050013    0.59580260445227
C        42.55817455613543    2.74233400779593    0.48623768532413
N        42.74960079837625    1.41361465525702    0.23390526886641
C        41.33980622369587    3.37560667892675    0.61857843531091
C        40.12995269759929    2.72306423750689    0.50192747144290
N        39.95130685826771    1.38854993572289    0.25158516385909
H        38.75178810461198    4.43702564079202    0.82622691678457
H        36.84738845171432    2.55284268275695    0.47053080599113
H        36.88669328905814   -2.56571619942554   -0.44119735791188
H        38.81958608646795   -4.42626590341874   -0.76699026716104
H        41.39906497330792   -4.38335871262734   -0.77490458935884
H        43.98522970638874   -4.37262282219154   -0.81151326752610
H        45.88177607295565   -2.47211974455239   -0.51234566512837
H        45.85088848319815    0.07591302690254   -0.06168655212786
H        45.84279999551991    2.62031504989423    0.41025968608774
H        43.91753252227729    4.47670991916026    0.79144899847801
H        41.33137843937912    4.43605626198836    0.81926157941007
C        19.31586924309294    0.04924267907155    0.00528707728045
C        20.53356606190762    0.05675682060257    0.00250503818376
C        21.87602092799469    0.05867360610157    0.00006896215642
C        23.09384788053555    0.05659519886929   -0.00237660465630
C        32.75706911495647   -0.00904543275057   -0.01155684811594
C        33.97482105032215   -0.01230976576658   -0.00858330093097
C        35.31744611381436   -0.00963829857753   -0.00455128395094
C        36.53507092587600   -0.00631450122441   -0.00136692346415
Ni       27.92534544176378    0.02274084657673   -0.01444687119622
C        25.43115893330646   -3.37699294155334    0.33339257559655
C        24.47635741422338   -2.42464406056733    0.23327806240521
C        25.16184149625010   -1.17363491280188    0.11051386383445
C        24.49103614812151    0.04791232925350   -0.00609416035864
C        25.17856379021232    1.25930842397690   -0.12808125826250
C        24.51068299935376    2.51990374940581   -0.25049266323529
C        25.47873705294171    3.45776365969444   -0.35978977334606
C        26.72925289766585    2.76266449682716   -0.30232918365917
N        26.53049385188826    1.41537339608312   -0.15759819150117
C        27.94888699710069    3.40048272712475   -0.39005029386050
C        29.15937156267918    2.74235851200996   -0.33028465770602
C        30.41954959576519    3.41622844346841   -0.42041097390432
C        31.37438253225551    2.46479356055643   -0.31255342970790
C        30.68887878976992    1.21713555819456   -0.15833931259986
N        29.33924717814971    1.39383992452482   -0.17253866850730
C        31.35965055496190   -0.00135727633711   -0.01428692343632
C        30.67231931986200   -1.21073267546492    0.12686361333063
C        31.34025246496891   -2.46823375064222    0.27734307993211
C        30.37217970259019   -3.40679601854515    0.38025973046261
C        29.12158898351120   -2.71505005590601    0.29232632011093
N        29.32029365008218   -1.36864816727556    0.13952223605576
C        27.90186089830182   -3.35592055026538    0.35179017657213
C        26.69133050053441   -2.70013773549458    0.27106179015546
N        26.51145522490857   -1.34954512109043    0.13180553145614
H        25.31591062542172   -4.43809460843598    0.43990904226346
H        23.40922362731179   -2.53265236201232    0.23975291254638
H        23.44526314629888    2.64338536356516   -0.25113370243409
H        25.37846817655870    4.52003051114660   -0.46948547902300
H        27.95658274280472    4.47305518298560   -0.51065328138860
H        30.53477315111040    4.47494465944071   -0.54860497772569
H        32.44147975320504    2.57122452733670   -0.33350212599610
H        32.40575049279368   -2.58954995265810    0.29850489286721
H        30.47242920856095   -4.46752934530817    0.50418417255800
H        27.89417927692994   -4.42894580827317    0.46837037753312

          :  Hamiltonian                  GFN2-xTB          :
         :: gradient norm              0.000383641295 Eh/a0 ::
         :: HOMO-LUMO gap              1.115194202597 eV    ::
         :: SCC energy              -215.229310913694 Eh    ::
         :: -> dispersion             -0.185869287946 Eh    ::
         :: repulsion energy           3.703089357483 Eh    ::

    * Orbital Energies and Occupations

         #    Occupation            Energy/Eh            Energy/eV
      -------------------------------------------------------------
         1        2.0000           -0.6764941             -18.4083
       ...           ...                  ...                  ...
       185        2.0000           -0.3712774             -10.1030
       186        2.0000           -0.3712682             -10.1027
       187        2.0000           -0.3681846             -10.0188
       188        2.0000           -0.3681599             -10.0181
       189        2.0000           -0.3669329              -9.9848
       190        2.0000           -0.3669252              -9.9845
       191        2.0000           -0.3669209              -9.9844
       192        2.0000           -0.3669187              -9.9844
       193        2.0000           -0.3647189              -9.9245
       194        2.0000           -0.3623331              -9.8596
       195        2.0000           -0.3610167              -9.8238
       196        2.0000           -0.3610069              -9.8235
       197        2.0000           -0.3550702              -9.6620 (HOMO)
       198                         -0.3140875              -8.5468 (LUMO)
       199                         -0.3034524              -8.2574
       200                         -0.3002907              -8.1713
       201                         -0.3002105              -8.1691
       202                         -0.2991736              -8.1409
       203                         -0.2991627              -8.1406
       204                         -0.2982812              -8.1166
       205                         -0.2982708              -8.1164
       206                         -0.2945163              -8.0142
       207                         -0.2703904              -7.3577
       208                         -0.2609599              -7.1011
       ...                                ...                  ...
       379                          1.6325082              44.4228
      -------------------------------------------------------------
                  HL-Gap            0.0409826 Eh            1.1152 eV

     #   Z          covCN         q      C6AA      α(0)
     1  28 Ni       3.020    -0.292   189.387    28.395
     2   6 C        3.024    -0.052    29.269     8.874
     3   6 C        3.021    -0.050    29.228     8.868
     4   6 C        3.186     0.074    25.920     8.308
     5   6 C        2.956     0.026    27.432     8.591
     6   6 C        3.185     0.074    25.921     8.308
     7   6 C        3.021    -0.050    29.227     8.868
     8   6 C        3.024    -0.052    29.269     8.874
     9   6 C        3.171     0.073    26.007     8.331
    10   7 N        2.624    -0.048    22.177     6.994
    11   6 C        2.904    -0.041    29.029     8.834
    12   6 C        3.168     0.074    25.998     8.331
    13   6 C        3.020    -0.051    29.248     8.871
    14   6 C        3.021    -0.051    29.249     8.871
    15   6 C        3.168     0.075    25.992     8.330
    16   7 N        2.625    -0.047    22.158     6.991
    17   6 C        2.904    -0.043    29.071     8.841
    18   6 C        3.168     0.075    25.992     8.330
    19   6 C        3.021    -0.051    29.249     8.871
    20   6 C        3.020    -0.051    29.248     8.871
    21   6 C        3.168     0.074    25.998     8.331
    22   7 N        2.625    -0.047    22.159     6.991
    23   6 C        2.904    -0.041    29.029     8.834
    24   6 C        3.171     0.073    26.007     8.330
    25   7 N        2.625    -0.048    22.175     6.994
    26   1 H        0.926     0.035     2.512     2.479
    27   1 H        0.926     0.037     2.487     2.466
    28   1 H        0.926     0.037     2.487     2.466
    29   1 H        0.926     0.035     2.513     2.479
    30   1 H        0.926     0.049     2.331     2.388
    31   1 H        0.926     0.036     2.506     2.475
    32   1 H        0.926     0.036     2.507     2.476
    33   1 H        0.926     0.048     2.339     2.392
    34   1 H        0.926     0.036     2.507     2.476
    35   1 H        0.926     0.036     2.506     2.475
    36   1 H        0.926     0.049     2.331     2.387
    37  28 Ni       3.020    -0.292   189.388    28.396
    38   6 C        3.023    -0.052    29.268     8.874
    39   6 C        3.021    -0.050    29.228     8.868
    40   6 C        3.185     0.074    25.921     8.308
    41   6 C        2.956     0.026    27.432     8.591
    42   6 C        3.185     0.074    25.920     8.308
    43   6 C        3.021    -0.050    29.227     8.868
    44   6 C        3.023    -0.052    29.269     8.874
    45   6 C        3.171     0.073    26.006     8.330
    46   7 N        2.624    -0.048    22.176     6.994
    47   6 C        2.904    -0.041    29.030     8.834
    48   6 C        3.168     0.074    25.998     8.331
    49   6 C        3.020    -0.051    29.248     8.871
    50   6 C        3.021    -0.051    29.249     8.871
    51   6 C        3.168     0.075    25.992     8.330
    52   7 N        2.625    -0.047    22.158     6.991
    53   6 C        2.904    -0.043    29.072     8.841
    54   6 C        3.168     0.075    25.992     8.330
    55   6 C        3.021    -0.051    29.249     8.871
    56   6 C        3.020    -0.051    29.248     8.871
    57   6 C        3.168     0.074    25.998     8.331
    58   7 N        2.625    -0.047    22.158     6.991
    59   6 C        2.904    -0.041    29.029     8.834
    60   6 C        3.171     0.073    26.007     8.331
    61   7 N        2.624    -0.048    22.177     6.994
    62   1 H        0.926     0.035     2.512     2.479
    63   1 H        0.926     0.037     2.486     2.466
    64   1 H        0.926     0.037     2.486     2.466
    65   1 H        0.926     0.035     2.512     2.479
    66   1 H        0.926     0.049     2.331     2.388
    67   1 H        0.926     0.036     2.506     2.475
    68   1 H        0.926     0.036     2.507     2.476
    69   1 H        0.926     0.048     2.339     2.392
    70   1 H        0.926     0.036     2.507     2.476
    71   1 H        0.926     0.036     2.506     2.475
    72   1 H        0.926     0.049     2.331     2.388
    73   6 C        1.992    -0.021    31.606     9.079
    74   6 C        1.963    -0.009    31.311     9.036
    75   6 C        1.963    -0.009    31.298     9.034
    76   6 C        1.992    -0.022    31.622     9.081
    77   6 C        1.992    -0.022    31.620     9.081
    78   6 C        1.963    -0.009    31.297     9.034
    79   6 C        1.963    -0.009    31.310     9.036
    80   6 C        1.992    -0.021    31.604     9.079
    81  28 Ni       3.015    -0.287   189.266    28.386
    82   6 C        3.024    -0.052    29.265     8.874
    83   6 C        3.022    -0.050    29.226     8.868
    84   6 C        3.187     0.074    25.906     8.304
    85   6 C        2.956     0.026    27.430     8.590
    86   6 C        3.187     0.074    25.906     8.305
    87   6 C        3.022    -0.050    29.225     8.868
    88   6 C        3.024    -0.052    29.265     8.874
    89   6 C        3.173     0.073    26.002     8.329
    90   7 N        2.623    -0.050    22.212     7.000
    91   6 C        2.904    -0.040    28.982     8.827
    92   6 C        3.173     0.073    26.002     8.329
    93   6 C        3.024    -0.052    29.265     8.874
    94   6 C        3.022    -0.050    29.226     8.868
    95   6 C        3.187     0.074    25.906     8.305
    96   7 N        2.623    -0.050    22.211     6.999
    97   6 C        2.956     0.026    27.430     8.590
    98   6 C        3.187     0.074    25.907     8.305
    99   6 C        3.022    -0.050    29.225     8.868
   100   6 C        3.024    -0.052    29.265     8.874
   101   6 C        3.173     0.073    26.002     8.329
   102   7 N        2.623    -0.050    22.213     7.000
   103   6 C        2.904    -0.040    28.982     8.827
   104   6 C        3.173     0.073    26.002     8.329
   105   7 N        2.623    -0.049    22.210     6.999
   106   1 H        0.926     0.035     2.512     2.479
   107   1 H        0.926     0.037     2.487     2.466
   108   1 H        0.926     0.037     2.487     2.466
   109   1 H        0.926     0.035     2.512     2.479
   110   1 H        0.926     0.050     2.324     2.384
   111   1 H        0.926     0.035     2.512     2.478
   112   1 H        0.926     0.037     2.486     2.466
   113   1 H        0.926     0.037     2.486     2.466
   114   1 H        0.926     0.035     2.512     2.479
   115   1 H        0.926     0.050     2.324     2.384

Wiberg/Mayer (AO) data.
largest (>0.10) Wiberg bond orders for each atom

     #   Z sym  total        # sym  WBO       # sym  WBO       # sym  WBO
 ---------------------------------------------------------------------------
     1  28 Ni   3.475 --    25 N    0.753    10 N    0.753    16 N    0.751
                            22 N    0.751
     2   6 C    3.953 --     3 C    1.646    24 C    1.170    26 H    0.972
     3   6 C    3.957 --     2 C    1.646     4 C    1.178    27 H    0.970
     4   6 C    3.917 --    25 N    1.262     5 C    1.253     3 C    1.178
     5   6 C    3.945 --     6 C    1.253     4 C    1.253    73 C    1.179
     6   6 C    3.917 --    10 N    1.262     5 C    1.253     7 C    1.178
     7   6 C    3.957 --     8 C    1.646     6 C    1.178    28 H    0.970
     8   6 C    3.953 --     7 C    1.646     9 C    1.170    29 H    0.972
     9   6 C    3.930 --    11 C    1.355    10 N    1.227     8 C    1.170
    10   7 N    3.577 --     6 C    1.262     9 C    1.227     1 Ni   0.753
    11   6 C    3.935 --     9 C    1.355    12 C    1.353    30 H    0.964
    12   6 C    3.935 --    11 C    1.353    16 N    1.240    13 C    1.161
    13   6 C    3.957 --    14 C    1.661    12 C    1.161    31 H    0.972
    14   6 C    3.955 --    13 C    1.661    15 C    1.161    32 H    0.972
    15   6 C    3.937 --    17 C    1.353    16 N    1.242    14 C    1.161
    16   7 N    3.571 --    15 C    1.242    12 C    1.240     1 Ni   0.751
    17   6 C    3.931 --    18 C    1.353    15 C    1.353    33 H    0.964
    18   6 C    3.937 --    17 C    1.353    22 N    1.242    19 C    1.161
    19   6 C    3.955 --    20 C    1.661    18 C    1.161    34 H    0.972
    20   6 C    3.957 --    19 C    1.661    21 C    1.161    35 H    0.972
    21   6 C    3.935 --    23 C    1.353    22 N    1.240    20 C    1.161
    22   7 N    3.571 --    18 C    1.242    21 C    1.240     1 Ni   0.751
    23   6 C    3.935 --    24 C    1.355    21 C    1.353    36 H    0.964
    24   6 C    3.930 --    23 C    1.355    25 N    1.227     2 C    1.170
    25   7 N    3.577 --     4 C    1.262    24 C    1.227     1 Ni   0.753
    26   1 H    0.998 --     2 C    0.972
    27   1 H    0.998 --     3 C    0.970
    28   1 H    0.998 --     7 C    0.970
    29   1 H    0.998 --     8 C    0.972
    30   1 H    0.996 --    11 C    0.964
    31   1 H    0.998 --    13 C    0.972
    32   1 H    0.998 --    14 C    0.972
    33   1 H    0.997 --    17 C    0.964
    34   1 H    0.998 --    19 C    0.972
    35   1 H    0.998 --    20 C    0.972
    36   1 H    0.996 --    23 C    0.964
    37  28 Ni   3.475 --    46 N    0.753    61 N    0.753    52 N    0.751
                            58 N    0.751
    38   6 C    3.953 --    39 C    1.646    60 C    1.170    62 H    0.972
    39   6 C    3.957 --    38 C    1.646    40 C    1.178    63 H    0.970
    40   6 C    3.917 --    61 N    1.262    41 C    1.253    39 C    1.178
    41   6 C    3.945 --    42 C    1.253    40 C    1.253    80 C    1.178
    42   6 C    3.917 --    46 N    1.262    41 C    1.253    43 C    1.178
    43   6 C    3.957 --    44 C    1.646    42 C    1.178    64 H    0.970
    44   6 C    3.953 --    43 C    1.646    45 C    1.170    65 H    0.972
    45   6 C    3.930 --    47 C    1.355    46 N    1.227    44 C    1.170
    46   7 N    3.577 --    42 C    1.262    45 C    1.227    37 Ni   0.753
    47   6 C    3.935 --    45 C    1.355    48 C    1.353    66 H    0.964
    48   6 C    3.935 --    47 C    1.353    52 N    1.240    49 C    1.161
    49   6 C    3.957 --    50 C    1.661    48 C    1.161    67 H    0.972
    50   6 C    3.955 --    49 C    1.661    51 C    1.161    68 H    0.972
    51   6 C    3.937 --    53 C    1.353    52 N    1.242    50 C    1.161
    52   7 N    3.571 --    51 C    1.242    48 C    1.240    37 Ni   0.751
    53   6 C    3.931 --    51 C    1.353    54 C    1.353    69 H    0.964
    54   6 C    3.937 --    53 C    1.353    58 N    1.242    55 C    1.160
    55   6 C    3.955 --    56 C    1.661    54 C    1.160    70 H    0.972
    56   6 C    3.957 --    55 C    1.661    57 C    1.161    71 H    0.972
    57   6 C    3.935 --    59 C    1.353    58 N    1.240    56 C    1.161
    58   7 N    3.571 --    54 C    1.242    57 C    1.240    37 Ni   0.751
    59   6 C    3.935 --    60 C    1.355    57 C    1.353    72 H    0.964
    60   6 C    3.930 --    59 C    1.355    61 N    1.227    38 C    1.170
    61   7 N    3.577 --    40 C    1.262    60 C    1.227    37 Ni   0.753
    62   1 H    0.998 --    38 C    0.972
    63   1 H    0.998 --    39 C    0.970
    64   1 H    0.998 --    43 C    0.970
    65   1 H    0.998 --    44 C    0.972
    66   1 H    0.996 --    47 C    0.964
    67   1 H    0.998 --    49 C    0.972
    68   1 H    0.998 --    50 C    0.972
    69   1 H    0.997 --    53 C    0.964
    70   1 H    0.998 --    55 C    0.972
    71   1 H    0.998 --    56 C    0.972
    72   1 H    0.996 --    59 C    0.964
    73   6 C    3.919 --    74 C    2.477     5 C    1.179    76 C    0.204
    74   6 C    3.931 --    73 C    2.477    75 C    1.301
    75   6 C    3.928 --    76 C    2.475    74 C    1.301
    76   6 C    3.921 --    75 C    2.475    85 C    1.181    73 C    0.204
    77   6 C    3.920 --    78 C    2.476    97 C    1.180    80 C    0.203
    78   6 C    3.928 --    77 C    2.476    79 C    1.300
    79   6 C    3.931 --    80 C    2.477    78 C    1.300
    80   6 C    3.919 --    79 C    2.477    41 C    1.178    77 C    0.203
    81  28 Ni   3.459 --   105 N    0.749    96 N    0.749    90 N    0.749
                           102 N    0.749
    82   6 C    3.953 --    83 C    1.644   104 C    1.171   106 H    0.972
    83   6 C    3.955 --    82 C    1.644    84 C    1.179   107 H    0.970
    84   6 C    3.918 --   105 N    1.264    85 C    1.250    83 C    1.179
    85   6 C    3.935 --    86 C    1.251    84 C    1.250    76 C    1.181
    86   6 C    3.918 --    90 N    1.264    85 C    1.251    87 C    1.179
    87   6 C    3.955 --    88 C    1.644    86 C    1.179   108 H    0.970
    88   6 C    3.953 --    87 C    1.644    89 C    1.171   109 H    0.972
    89   6 C    3.929 --    91 C    1.354    90 N    1.226    88 C    1.171
    90   7 N    3.568 --    86 C    1.264    89 C    1.226    81 Ni   0.749
    91   6 C    3.930 --    92 C    1.354    89 C    1.354   110 H    0.963
    92   6 C    3.929 --    91 C    1.354    96 N    1.226    93 C    1.171
    93   6 C    3.954 --    94 C    1.644    92 C    1.171   111 H    0.972
    94   6 C    3.955 --    93 C    1.644    95 C    1.179   112 H    0.970
    95   6 C    3.918 --    96 N    1.264    97 C    1.251    94 C    1.179
    96   7 N    3.568 --    95 C    1.264    92 C    1.226    81 Ni   0.749
    97   6 C    3.934 --    98 C    1.251    95 C    1.251    77 C    1.180
    98   6 C    3.918 --   102 N    1.264    97 C    1.251    99 C    1.179
    99   6 C    3.955 --   100 C    1.644    98 C    1.179   113 H    0.970
   100   6 C    3.954 --    99 C    1.644   101 C    1.171   114 H    0.972
   101   6 C    3.929 --   103 C    1.354   102 N    1.226   100 C    1.171
   102   7 N    3.568 --    98 C    1.264   101 C    1.226    81 Ni   0.749
   103   6 C    3.930 --   104 C    1.355   101 C    1.354   115 H    0.963
   104   6 C    3.929 --   103 C    1.355   105 N    1.225    82 C    1.171
   105   7 N    3.568 --    84 C    1.264   104 C    1.225    81 Ni   0.749
   106   1 H    0.998 --    82 C    0.972
   107   1 H    0.998 --    83 C    0.970
   108   1 H    0.998 --    87 C    0.970
   109   1 H    0.998 --    88 C    0.972
   110   1 H    0.996 --    91 C    0.963
   111   1 H    0.998 --    93 C    0.972
   112   1 H    0.998 --    94 C    0.970
   113   1 H    0.998 --    99 C    0.970
   114   1 H    0.998 --   100 C    0.972
   115   1 H    0.996 --   103 C    0.963
 ---------------------------------------------------------------------------

molecular dipole:
                 x           y           z       tot (Debye)
 q only:        0.001      -0.001      -0.002
   full:        0.001      -0.001      -0.002       0.006

 projected vibrational frequencies (cm⁻¹)
eigval :       -0.00    -0.00    -0.00     0.00     0.00     0.00
eigval :       -4.43    -3.70    -1.76     3.52     5.30     6.05
eigval :       13.43    14.73    18.44    23.54    26.09    26.23
eigval :       31.68    39.03    41.91    51.86    52.69    84.12
eigval :       96.16    99.76   100.04   101.81   107.42   118.79
eigval :      120.28   120.74   123.77   145.73   149.07   153.78
eigval :      161.67   176.54   177.00   177.43   178.63   215.65
eigval :      223.94   226.54   226.97   227.10   227.20   230.95
eigval :      231.37   234.37   237.33   237.51   243.05   245.94
eigval :      245.97   246.20   246.93   259.50   270.39   271.36
eigval :      271.77   272.13   272.59   273.43   285.63   290.98
eigval :      307.07   310.87   316.24   317.53   318.91   324.80
eigval :      331.72   342.10   342.29   356.77   357.11   360.73
eigval :      364.66   366.58   371.85   372.01   381.40   381.86
eigval :      384.11   384.37   387.99   388.82   389.22   391.93
eigval :      396.63   399.88   402.43   402.69   403.26   422.12
eigval :      422.46   422.74   435.69   436.23   437.13   451.10
eigval :      459.59   459.90   465.88   501.18   504.58   506.24
eigval :      509.13   524.02   539.27   614.63   614.83   615.14
eigval :      617.42   621.58   621.71   626.37   626.56   630.44
eigval :      635.93   639.63   639.73   644.85   645.02   654.91
eigval :      657.39   658.07   658.38   666.18   666.34   671.00
eigval :      671.06   671.65   671.82   722.39   722.68   723.37
eigval :      725.81   752.70   758.43   759.32   760.93   762.34
eigval :      762.89   767.53   767.95   779.14   779.99   781.33
eigval :      788.10   797.08   797.48   798.38   798.47   800.77
eigval :      800.88   805.64   807.32   807.47   807.61   812.77
eigval :      812.88   816.93   818.35   818.89   820.24   820.82
eigval :      820.92   828.38   828.47   835.88   835.96   836.38
eigval :      837.30   839.04   839.08   846.84   847.03   847.09
eigval :      847.24   847.37   847.75   848.20   848.50   848.59
eigval :      848.81   848.92   849.17   925.94   928.58   985.19
eigval :      986.18   991.70  1000.56  1001.80  1001.95  1005.68
eigval :     1012.18  1022.76  1022.80  1022.91  1023.24  1027.72
eigval :     1027.87  1031.93  1033.93  1036.75  1036.81  1036.99
eigval :     1040.34  1040.37  1041.73  1067.82  1067.86  1069.53
eigval :     1070.15  1070.56  1070.90  1072.31  1072.56  1072.93
eigval :     1073.26  1073.67  1074.05  1122.29  1132.23  1141.27
eigval :     1141.33  1141.36  1158.48  1163.40  1171.85  1174.62
eigval :     1174.63  1174.73  1211.39  1223.02  1226.30  1226.46
eigval :     1230.66  1244.37  1244.62  1246.67  1264.45  1282.20
eigval :     1282.31  1302.95  1303.58  1304.93  1304.94  1306.17
eigval :     1310.82  1317.47  1317.55  1317.71  1318.86  1327.68
eigval :     1331.64  1332.31  1332.58  1332.64  1341.16  1344.22
eigval :     1344.83  1348.33  1352.10  1355.46  1356.30  1359.38
eigval :     1359.41  1403.20  1403.73  1459.51  1467.00  1467.22
eigval :     1469.24  1473.53  1480.52  1484.73  1490.79  1491.33
eigval :     1511.41  1514.80  1516.11  1516.22  1516.80  1517.73
eigval :     1526.01  1527.91  1531.72  1531.87  1533.75  1534.99
eigval :     1535.11  1545.32  1545.38  1553.80  1555.05  1561.89
eigval :     1561.95  1571.99  1572.16  1582.95  1583.34  1584.85
eigval :     1608.90  1615.83  1615.99  2231.43  2235.55  2237.46
eigval :     2237.67  3095.32  3095.73  3095.81  3095.83  3096.24
eigval :     3096.32  3097.31  3097.34  3150.21  3150.23  3150.74
eigval :     3150.92  3154.65  3154.73  3154.91  3154.99  3155.17
eigval :     3155.37  3155.53  3155.69  3164.02  3164.04  3165.00
eigval :     3165.14  3168.54  3168.69  3169.00  3169.50  3169.73
eigval :     3169.96  3170.02  3170.20

   temp. (K)  partition function   enthalpy   heat capacity  entropy
                                   cal/mol     cal/K/mol   cal/K/mol   J/K/mol
 298.15  VIB  0.450E+35            39634.894    258.472    250.893
         ROT  0.822E+09              888.752      2.981     43.773
         INT  0.369E+44            40523.646    261.453    294.666
         TR   0.399E+29             1481.254      4.968     47.087
         TOT                       42004.9001   266.4210   341.7523  1429.8916

       T/K    H(0)-H(T)+PV         H(T)/Eh          T*S/Eh         G(T)/Eh
   ------------------------------------------------------------------------
    298.15    0.669391E-01    0.861966E+00    0.162378E+00    0.699588E+00
   ------------------------------------------------------------------------

         :::::::::::::::::::::::::::::::::::::::::::::::::::::
         ::                  THERMODYNAMIC                  ::
         :::::::::::::::::::::::::::::::::::::::::::::::::::::
         :: total free energy        -210.829293249269 Eh   ::
         ::.................................................::
         :: total energy             -211.528881352915 Eh   ::
         :: zero point energy           0.795026578552 Eh   ::
         :: G(RRHO) w/o ZPVE           -0.095438474906 Eh   ::
         :: G(RRHO) contrib.            0.699588103646 Eh   ::
         :::::::::::::::::::::::::::::::::::::::::::::::::::::

           -------------------------------------------------
          | TOTAL ENERGY             -211.528881352915 Eh   |
          | TOTAL ENTHALPY           -210.666915705197 Eh   |
          | TOTAL FREE ENERGY        -210.829293249269 Eh   |
          | GRADIENT NORM               0.000383556478 Eh/α |
          | HOMO-LUMO GAP               1.115194458318 eV   |
           -------------------------------------------------

 * finished run on 2021/11/19 at 11:27:17.184
