   * xtb version 6.4.1 (bd6e46d) compiled by 'conda@4901f00b25ba' on 2021-06-10
          program call               : /home/jeff/miniconda3/bin/xtb input_structure_1.xyz --gfn 2 --ohess normal --parallel 1 --etemp 300 --chrg 0 --uhf 0 -I det_control.in
          number of atoms            :                    76
          number of electrons        :                   234
          charge                     :                     0
          spin                       :                   0.0

   ID    Z sym.   atoms
    1    6 C      1-8, 10-14, 16-20, 22, 23, 38-47, 49-53, 55-59, 61, 62
    2    7 N      9, 15, 21, 24, 48, 54, 60, 63
    3    1 H      25-37, 64-76

          :  Hamiltonian                  GFN2-xTB          :
 * total energy  :  -125.6833543 Eh     change        0.2398792E-10 Eh
 * total energy  :  -126.1251905 Eh     change       -0.4418363E+00 Eh
 * total energy  :  -126.2448591 Eh     change       -0.1196686E+00 Eh
 * total energy  :  -126.3079351 Eh     change       -0.6307593E-01 Eh
 * total energy  :  -126.3520205 Eh     change       -0.4408543E-01 Eh
 * total energy  :  -126.3826911 Eh     change       -0.3067062E-01 Eh
 * total energy  :  -126.4058825 Eh     change       -0.2319141E-01 Eh
 * total energy  :  -126.4242588 Eh     change       -0.1837621E-01 Eh
 * total energy  :  -126.4394534 Eh     change       -0.1519466E-01 Eh
 * total energy  :  -126.4524224 Eh     change       -0.1296897E-01 Eh
 * total energy  :  -126.5036388 Eh     change       -0.3799485E-04 Eh
 * total energy  :  -126.5036760 Eh     change       -0.3723891E-04 Eh
 * total energy  :  -126.5037145 Eh     change       -0.3848327E-04 Eh
 * total energy  :  -126.5037544 Eh     change       -0.3989331E-04 Eh
 * total energy  :  -126.5037915 Eh     change       -0.3705553E-04 Eh
 * total energy  :  -126.5038203 Eh     change       -0.2885398E-04 Eh
 * total energy  :  -126.5038390 Eh     change       -0.1869417E-04 Eh
 * total energy  :  -126.5038507 Eh     change       -0.1167026E-04 Eh
 * total energy  :  -126.5038536 Eh     change       -0.2950754E-05 Eh
   *** GEOMETRY OPTIMIZATION CONVERGED AFTER 94 ITERATIONS ***

 final structure:
================
76
 xtb: 6.4.1 (bd6e46d)
C        11.72813519728284    3.34727026808677    0.82561354388481
C        12.69881132720666    2.44343146607192    0.58972297730459
C        12.02115776882757    1.21925116150315    0.20305235110457
C        12.70308348159981    0.03645351991157   -0.14238949352629
C        12.06869689493865   -1.16089793561342   -0.51053046738530
C        12.68568144171758   -2.37477708099757   -0.91542960017115
C        11.69288663982238   -3.27525300383123   -1.17344837178461
C        10.44685942614805   -2.63001283808012   -0.93525352528838
N        10.72633912638392   -1.35636141341484   -0.54267328629720
C         9.18676370321165   -3.19346854055375   -1.07269164266243
C         7.96024328191265   -2.57991718163027   -0.85982552152564
C         6.69310075348583   -3.27692243751534   -1.02826475351361
C         5.73026849499667   -2.37942929009942   -0.74780181909542
C         6.41654049745689   -1.14092573266519   -0.41391502283741
N         7.75483287783984   -1.29946727535904   -0.48814928358960
C         5.75302407247639    0.03269955571662   -0.07884136016897
C         6.36217627031517    1.23854756786294    0.23211683655355
C         5.74060038685835    2.47402068140096    0.57258149136138
C         6.72937159238484    3.38504574739261    0.79907158348181
C         7.98047817400799    2.72982195429082    0.60540234263095
N         7.70605680678216    1.44347555836531    0.26333276862781
C         9.24110785672122    3.28785632929456    0.75464148866637
C        10.46837838153189    2.66196495918038    0.59205488427055
N        10.68666830719711    1.37818553810115    0.22025295125566
H        11.81899272602745    4.37149773537394    1.13270897525343
H        13.76231256386039    2.55321385666769    0.67201686131048
H        13.74367181942292   -2.52187112791930   -1.00906920138420
H        11.80269638883050   -4.29084351501193   -1.50073176560835
H        10.04561073781955   -0.64328543647536   -0.30775258117176
H         9.16033335340664   -4.22918862002943   -1.38233131525982
H         6.59644778247465   -4.30544865490028   -1.31945561153524
H         4.66425427520411   -2.50334954842003   -0.75728051258360
H         4.67308841321458    0.00503051288592   -0.06351059732934
H         4.68092164290640    2.62961604020204    0.63252326612436
H         6.61741201816438    4.41543126620007    1.07608408237955
H         8.38561865107009    0.72126312185959    0.05684234818704
H         9.26994645486365    4.32981078563289    1.04260728956218
C        14.10398857122578    0.04609888460048   -0.11398072555096
C        15.31670454653116    0.05955750360442   -0.07159995792365
C        22.81871228825396    3.31111562794919   -0.14073297375301
C        23.75437215558086    2.35461701013860    0.00345450344442
C        23.03284725581489    1.09607608905993    0.11197115012561
C        23.66149338857089   -0.13289956305550    0.26786376012081
C        23.01726425257806   -1.35546668262907    0.37832236541239
C        23.60080891361459   -2.64369610297688    0.54725885011797
C        22.58529677048046   -3.55066158665265    0.61930839256011
C        21.35536167024805   -2.84073911470098    0.49566629430890
N        21.66856935158656   -1.52637381140391    0.34997068740772
C        20.07867602162624   -3.38079829541358    0.53198882830201
C        18.87099789471815   -2.70714598718554    0.42321070554177
C        17.59027587917087   -3.38744380232814    0.51235271197448
C        16.64689571673922   -2.43684676172932    0.36667660707496
C        17.36244433251948   -1.18710487965765    0.18276380164995
N        18.69184195686254   -1.37872319315076    0.22948067560407
C        16.71674454039937    0.04900905201086   -0.01584723060861
C        17.38678339355190    1.27454756135795   -0.15679648812346
C        16.80984415952810    2.55334264550721   -0.37975032052363
C        17.82845316546618    3.45985234635533   -0.44016427268316
C        19.05131588116511    2.75350767010131   -0.26249807934434
N        18.73239686437069    1.43987978472785   -0.09849773562137
C        20.32627022236922    3.30010125951481   -0.26026695087007
C        21.53274786737001    2.62860074465873   -0.11995455500221
N        21.70062083619361    1.29926851661087    0.03665910755242
H        22.94516715836029    4.37109248380213   -0.25216420212462
H        24.82278771185557    2.45068805176587    0.03672109559004
H        24.74112788210870   -0.13651617358828    0.30812745630031
H        24.65467401082730   -2.83504132084998    0.60614699302665
H        22.66577779398659   -4.61287169211361    0.74687222540865
H        21.01209433763594   -0.76314663482046    0.23753159021611
H        20.01818813160014   -4.45193706542253    0.66782895479747
H        17.46790225685574   -4.44179782192046    0.67035538563522
H        15.57911453452844   -2.53152417094705    0.39432595967834
H        15.75981145337046    2.73975815784037   -0.49092041142338
H        17.75109959063200    4.51819328286284   -0.59674001672664
H        19.38878878603594    0.68086124714488    0.04356590937917
H        20.38388686645749    4.37209774795171   -0.38978739990061

          :  Hamiltonian                  GFN2-xTB          :
         :: gradient norm              0.000299880087 Eh/a0 ::
         :: HOMO-LUMO gap              1.123349497931 eV    ::
         :: SCC energy              -128.786253558879 Eh    ::
         :: -> dispersion             -0.104987163199 Eh    ::
         :: repulsion energy           2.283556898769 Eh    ::

    * Orbital Energies and Occupations

         #    Occupation            Energy/Eh            Energy/eV
      -------------------------------------------------------------
         1        2.0000           -0.6827368             -18.5782
       ...           ...                  ...                  ...
       105        2.0000           -0.4043466             -11.0028
       106        2.0000           -0.3915469             -10.6545
       107        2.0000           -0.3895905             -10.6013
       108        2.0000           -0.3871905             -10.5360
       109        2.0000           -0.3871067             -10.5337
       110        2.0000           -0.3709602             -10.0943
       111        2.0000           -0.3708913             -10.0925
       112        2.0000           -0.3699714             -10.0674
       113        2.0000           -0.3699672             -10.0673
       114        2.0000           -0.3677558             -10.0071
       115        2.0000           -0.3674698              -9.9994
       116        2.0000           -0.3633024              -9.8860
       117        2.0000           -0.3487679              -9.4905 (HOMO)
       118                         -0.3074855              -8.3671 (LUMO)
       119                         -0.2967446              -8.0748
       120                         -0.2963906              -8.0652
       121                         -0.2903592              -7.9011
       122                         -0.2607732              -7.0960
       123                         -0.2515272              -6.8444
       124                         -0.1900751              -5.1722
       125                         -0.1886403              -5.1332
       126                         -0.1772293              -4.8227
       127                         -0.1714073              -4.6642
       128                         -0.1670829              -4.5466
       ...                                ...                  ...
       226                          1.4098554              38.3641
      -------------------------------------------------------------
                  HL-Gap            0.0412824 Eh            1.1234 eV

     #   Z          covCN         q      C6AA      α(0)
     1   6 C        3.016    -0.055    29.346     8.886
     2   6 C        3.010    -0.053    29.306     8.880
     3   6 C        3.193     0.086    25.607     8.252
     4   6 C        2.952     0.013    27.722     8.636
     5   6 C        3.094     0.064    26.464     8.431
     6   6 C        3.027    -0.050    29.201     8.864
     7   6 C        3.033    -0.052    29.257     8.872
     8   6 C        3.072     0.064    26.486     8.438
     9   7 N        2.786    -0.081    22.816     7.094
    10   6 C        2.899    -0.055    29.374     8.886
    11   6 C        3.171     0.087    25.719     8.285
    12   6 C        3.012    -0.054    29.318     8.882
    13   6 C        3.009    -0.054    29.321     8.882
    14   6 C        3.174     0.086    25.708     8.281
    15   7 N        1.870    -0.321    29.181     8.007
    16   6 C        2.899    -0.057    29.419     8.893
    17   6 C        3.074     0.065    26.471     8.436
    18   6 C        3.026    -0.051    29.244     8.870
    19   6 C        3.031    -0.051    29.234     8.869
    20   6 C        3.068     0.065    26.467     8.436
    21   7 N        2.787    -0.081    22.820     7.095
    22   6 C        2.899    -0.055    29.374     8.886
    23   6 C        3.174     0.085    25.731     8.285
    24   7 N        1.870    -0.324    29.263     8.019
    25   1 H        0.926     0.018     2.759     2.598
    26   1 H        0.926     0.019     2.748     2.592
    27   1 H        0.926     0.043     2.405     2.425
    28   1 H        0.926     0.041     2.432     2.438
    29   1 H        0.860     0.214     1.037     1.595
    30   1 H        0.925     0.047     2.362     2.403
    31   1 H        0.926     0.019     2.746     2.591
    32   1 H        0.926     0.019     2.746     2.591
    33   1 H        0.926     0.046     2.374     2.409
    34   1 H        0.926     0.042     2.428     2.437
    35   1 H        0.926     0.041     2.429     2.437
    36   1 H        0.860     0.214     1.036     1.594
    37   1 H        0.925     0.047     2.362     2.403
    38   6 C        1.993    -0.031    31.861     9.116
    39   6 C        1.992    -0.031    31.862     9.116
    40   6 C        3.012    -0.054    29.318     8.882
    41   6 C        3.009    -0.054    29.321     8.882
    42   6 C        3.174     0.086    25.708     8.281
    43   6 C        2.899    -0.057    29.419     8.893
    44   6 C        3.074     0.065    26.472     8.436
    45   6 C        3.025    -0.051    29.244     8.870
    46   6 C        3.031    -0.051    29.234     8.869
    47   6 C        3.069     0.065    26.466     8.436
    48   7 N        2.787    -0.081    22.820     7.095
    49   6 C        2.899    -0.055    29.373     8.886
    50   6 C        3.174     0.085    25.733     8.285
    51   6 C        3.016    -0.055    29.347     8.886
    52   6 C        3.010    -0.054    29.316     8.882
    53   6 C        3.193     0.086    25.607     8.252
    54   7 N        1.870    -0.324    29.261     8.018
    55   6 C        2.952     0.013    27.723     8.636
    56   6 C        3.094     0.064    26.464     8.431
    57   6 C        3.027    -0.049    29.194     8.863
    58   6 C        3.033    -0.052    29.257     8.872
    59   6 C        3.072     0.064    26.485     8.438
    60   7 N        2.786    -0.081    22.818     7.095
    61   6 C        2.899    -0.055    29.375     8.887
    62   6 C        3.170     0.087    25.720     8.285
    63   7 N        1.870    -0.321    29.180     8.007
    64   1 H        0.926     0.019     2.746     2.591
    65   1 H        0.926     0.019     2.746     2.591
    66   1 H        0.926     0.046     2.374     2.409
    67   1 H        0.926     0.042     2.428     2.437
    68   1 H        0.926     0.041     2.429     2.437
    69   1 H        0.860     0.214     1.035     1.594
    70   1 H        0.925     0.047     2.362     2.403
    71   1 H        0.926     0.018     2.759     2.598
    72   1 H        0.926     0.020     2.740     2.589
    73   1 H        0.926     0.043     2.412     2.429
    74   1 H        0.926     0.041     2.432     2.439
    75   1 H        0.860     0.214     1.037     1.595
    76   1 H        0.925     0.047     2.362     2.403

Wiberg/Mayer (AO) data.
largest (>0.10) Wiberg bond orders for each atom

     #   Z sym  total        # sym  WBO       # sym  WBO       # sym  WBO
 ---------------------------------------------------------------------------
     1   6 C    3.960 --     2 C    1.716    23 C    1.115    25 H    0.973
     2   6 C    3.961 --     1 C    1.716     3 C    1.122    26 H    0.969
     3   6 C    3.922 --    24 N    1.359     4 C    1.250     2 C    1.122
     4   6 C    3.940 --     5 C    1.253     3 C    1.250    38 C    1.177
     5   6 C    3.907 --     4 C    1.253     6 C    1.236     9 N    1.225
     6   6 C    3.956 --     7 C    1.593     5 C    1.236    27 H    0.969
     7   6 C    3.949 --     6 C    1.593     8 C    1.224    28 H    0.973
     8   6 C    3.918 --    10 C    1.344     7 C    1.224     9 N    1.203
     9   7 N    3.590 --     5 C    1.225     8 C    1.203    29 H    0.900
    10   6 C    3.922 --    11 C    1.358     8 C    1.344    30 H    0.964
    11   6 C    3.939 --    10 C    1.358    15 N    1.324    12 C    1.107
    12   6 C    3.963 --    13 C    1.731    11 C    1.107    31 H    0.973
    13   6 C    3.962 --    12 C    1.731    14 C    1.109    32 H    0.973
    14   6 C    3.938 --    16 C    1.353    15 N    1.326    13 C    1.109
    15   7 N    3.002 --    14 C    1.326    11 C    1.324
    16   6 C    3.924 --    14 C    1.353    17 C    1.347    33 H    0.965
    17   6 C    3.921 --    16 C    1.347    18 C    1.215    21 N    1.210
    18   6 C    3.949 --    19 C    1.608    17 C    1.215    34 H    0.973
    19   6 C    3.953 --    18 C    1.608    20 C    1.215    35 H    0.973
    20   6 C    3.916 --    22 C    1.343    19 C    1.215    21 N    1.211
    21   7 N    3.586 --    20 C    1.211    17 C    1.210    36 H    0.900
    22   6 C    3.937 --    23 C    1.364    20 C    1.343    37 H    0.964
    23   6 C    3.925 --    22 C    1.364    24 N    1.302     1 C    1.115
    24   7 N    3.010 --     3 C    1.359    23 C    1.302
    25   1 H    0.999 --     1 C    0.973
    26   1 H    0.999 --     2 C    0.969
    27   1 H    0.998 --     6 C    0.969
    28   1 H    0.998 --     7 C    0.973
    29   1 H    0.954 --     9 N    0.900
    30   1 H    0.997 --    10 C    0.964
    31   1 H    0.999 --    12 C    0.973
    32   1 H    0.999 --    13 C    0.973
    33   1 H    0.997 --    16 C    0.965
    34   1 H    0.998 --    18 C    0.973
    35   1 H    0.998 --    19 C    0.973
    36   1 H    0.954 --    21 N    0.900
    37   1 H    0.997 --    22 C    0.964
    38   6 C    3.924 --    39 C    2.570     4 C    1.177
    39   6 C    3.924 --    38 C    2.570    55 C    1.177
    40   6 C    3.963 --    41 C    1.731    62 C    1.107    64 H    0.973
    41   6 C    3.962 --    40 C    1.731    42 C    1.109    65 H    0.973
    42   6 C    3.938 --    43 C    1.354    63 N    1.325    41 C    1.109
    43   6 C    3.924 --    42 C    1.354    44 C    1.347    66 H    0.965
    44   6 C    3.921 --    43 C    1.347    45 C    1.216    48 N    1.210
    45   6 C    3.949 --    46 C    1.608    44 C    1.216    67 H    0.973
    46   6 C    3.953 --    45 C    1.608    47 C    1.215    68 H    0.973
    47   6 C    3.916 --    49 C    1.343    46 C    1.215    48 N    1.211
    48   7 N    3.586 --    47 C    1.211    44 C    1.210    69 H    0.900
    49   6 C    3.937 --    50 C    1.365    47 C    1.343    70 H    0.964
    50   6 C    3.925 --    49 C    1.365    54 N    1.301    51 C    1.115
    51   6 C    3.960 --    52 C    1.716    50 C    1.115    71 H    0.973
    52   6 C    3.962 --    51 C    1.716    53 C    1.122    72 H    0.969
    53   6 C    3.922 --    54 N    1.359    55 C    1.249    52 C    1.122
    54   7 N    3.010 --    53 C    1.359    50 C    1.301
    55   6 C    3.940 --    56 C    1.254    53 C    1.249    39 C    1.177
    56   6 C    3.907 --    55 C    1.254    57 C    1.236    60 N    1.224
    57   6 C    3.956 --    58 C    1.593    56 C    1.236    73 H    0.969
    58   6 C    3.948 --    57 C    1.593    59 C    1.223    74 H    0.973
    59   6 C    3.918 --    61 C    1.344    58 C    1.223    60 N    1.203
    60   7 N    3.590 --    56 C    1.224    59 C    1.203    75 H    0.900
    61   6 C    3.922 --    62 C    1.358    59 C    1.344    76 H    0.964
    62   6 C    3.939 --    61 C    1.358    63 N    1.324    40 C    1.107
    63   7 N    3.002 --    42 C    1.325    62 C    1.324
    64   1 H    0.999 --    40 C    0.973
    65   1 H    0.999 --    41 C    0.973
    66   1 H    0.997 --    43 C    0.965
    67   1 H    0.998 --    45 C    0.973
    68   1 H    0.998 --    46 C    0.973
    69   1 H    0.954 --    48 N    0.900
    70   1 H    0.997 --    49 C    0.964
    71   1 H    0.999 --    51 C    0.973
    72   1 H    0.999 --    52 C    0.969
    73   1 H    0.998 --    57 C    0.969
    74   1 H    0.998 --    58 C    0.973
    75   1 H    0.954 --    60 N    0.900
    76   1 H    0.997 --    61 C    0.964
 ---------------------------------------------------------------------------

molecular dipole:
                 x           y           z       tot (Debye)
 q only:       -0.000      -0.006      -0.011
   full:       -0.001      -0.009       0.034       0.090

 projected vibrational frequencies (cm⁻¹)
eigval :       -0.00    -0.00    -0.00    -0.00     0.00     0.00
eigval :        9.68    11.29    12.21    31.75    41.57    42.19
eigval :       48.09    51.82    64.21    68.76    79.45    94.11
eigval :      100.44   111.19   115.43   120.60   121.56   142.33
eigval :      143.01   169.85   181.87   185.64   188.03   201.02
eigval :      203.49   203.84   245.20   260.37   265.35   267.34
eigval :      272.65   282.12   297.92   300.93   303.98   335.08
eigval :      337.62   345.54   349.22   359.35   361.87   362.36
eigval :      367.66   369.77   394.50   394.66   420.24   423.11
eigval :      430.33   431.05   445.94   448.74   499.16   513.16
eigval :      593.73   601.07   601.86   605.71   606.56   627.44
eigval :      628.35   636.75   637.40   647.11   647.27   650.90
eigval :      650.96   653.70   653.89   659.10   660.17   668.14
eigval :      672.47   713.86   714.47   722.67   723.40   728.88
eigval :      730.45   741.20   742.95   747.83   748.54   760.74
eigval :      761.37   768.96   772.43   785.34   795.90   798.20
eigval :      798.64   805.68   806.61   811.40   813.13   818.48
eigval :      820.09   827.40   828.12   835.86   837.11   838.79
eigval :      839.58   841.59   842.37   842.63   843.32   852.23
eigval :      852.28   854.20   856.97   887.55   946.23   959.80
eigval :      960.21   972.42   972.83   976.54   977.79   999.05
eigval :      999.85  1005.53  1009.91  1015.88  1016.11  1030.22
eigval :     1033.45  1050.70  1057.80  1060.39  1063.61  1063.68
eigval :     1070.29  1070.62  1074.25  1075.50  1098.69  1120.45
eigval :     1122.18  1127.83  1141.53  1153.78  1160.45  1174.27
eigval :     1182.25  1183.87  1184.38  1194.97  1205.28  1211.77
eigval :     1233.31  1233.78  1256.33  1256.56  1284.68  1286.20
eigval :     1303.98  1307.18  1337.67  1339.96  1346.33  1346.90
eigval :     1348.61  1364.32  1373.68  1375.47  1376.76  1383.35
eigval :     1383.41  1388.54  1389.27  1395.75  1406.96  1453.66
eigval :     1466.52  1477.50  1479.90  1487.60  1504.68  1505.55
eigval :     1506.71  1509.00  1510.43  1514.13  1515.14  1549.49
eigval :     1551.16  1554.92  1556.82  1560.45  1561.39  1585.95
eigval :     1586.42  1594.59  1594.91  2256.48  3076.56  3076.77
eigval :     3077.41  3077.55  3086.42  3086.67  3139.71  3139.78
eigval :     3145.45  3145.60  3154.81  3155.16  3156.29  3156.46
eigval :     3160.67  3160.76  3165.36  3165.67  3168.76  3169.09
eigval :     3174.83  3175.17  3348.72  3349.39  3356.77  3357.39

   temp. (K)  partition function   enthalpy   heat capacity  entropy
                                   cal/mol     cal/K/mol   cal/K/mol   J/K/mol
 298.15  VIB  0.111E+18            22751.608    153.792    140.563
         ROT  0.113E+09              888.752      2.981     39.837
         INT  0.126E+26            23640.360    156.772    180.400
         TR   0.158E+29             1481.254      4.968     45.243
         TOT                       25121.6142   161.7405   225.6433   944.0916

       T/K    H(0)-H(T)+PV         H(T)/Eh          T*S/Eh         G(T)/Eh
   ------------------------------------------------------------------------
    298.15    0.400338E-01    0.599999E+00    0.107210E+00    0.492789E+00
   ------------------------------------------------------------------------

         :::::::::::::::::::::::::::::::::::::::::::::::::::::
         ::                  THERMODYNAMIC                  ::
         :::::::::::::::::::::::::::::::::::::::::::::::::::::
         :: total free energy        -126.011064854603 Eh   ::
         ::.................................................::
         :: total energy             -126.503853628746 Eh   ::
         :: zero point energy           0.559965355783 Eh   ::
         :: G(RRHO) w/o ZPVE           -0.067176581640 Eh   ::
         :: G(RRHO) contrib.            0.492788774143 Eh   ::
         :::::::::::::::::::::::::::::::::::::::::::::::::::::

           -------------------------------------------------
          | TOTAL ENERGY             -126.503853628746 Eh   |
          | TOTAL ENTHALPY           -125.903854432456 Eh   |
          | TOTAL FREE ENERGY        -126.011064854603 Eh   |
          | GRADIENT NORM               0.000299929662 Eh/α |
          | HOMO-LUMO GAP               1.123350211252 eV   |
           -------------------------------------------------

 * finished run on 2021/11/19 at 15:11:17.793
