   * xtb version 6.4.1 (bd6e46d) compiled by 'conda@4901f00b25ba' on 2021-06-10
          program call               : /home/jeff/miniconda3/bin/xtb input_structure_1.xyz --gfn 2 --ohess normal --parallel 1 --etemp 300 --chrg 0 --uhf 0 -I det_control.in
          number of atoms            :                   119
          number of electrons        :                   386
          charge                     :                     0
          spin                       :                   0.0

   ID    Z sym.   atoms
    1   30 Zn     1, 37, 85
    2    6 C      2-9, 11-15, 17-21, 23, 24, 38-45, 47-51, 53-57, 59, 60,
                  73-84, 86-93, 95-99, 101-105, 107, 108
    3    7 N      10, 16, 22, 25, 46, 52, 58, 61, 94, 100, 106, 109
    4    1 H      26-36, 62-72, 110-119

          :  Hamiltonian                  GFN2-xTB          :
 * total energy  :  -206.0065083 Eh     change        0.7655063E-07 Eh
 * total energy  :  -206.3317444 Eh     change       -0.3252361E+00 Eh
 * total energy  :  -206.4652685 Eh     change       -0.1335242E+00 Eh
 * total energy  :  -206.5344033 Eh     change       -0.6913473E-01 Eh
 * total energy  :  -206.5737695 Eh     change       -0.3936622E-01 Eh
 * total energy  :  -206.6019041 Eh     change       -0.2813457E-01 Eh
 * total energy  :  -206.6234620 Eh     change       -0.2155795E-01 Eh
 * total energy  :  -206.6415755 Eh     change       -0.1811347E-01 Eh
 * total energy  :  -206.6592904 Eh     change       -0.1771491E-01 Eh
 * total energy  :  -206.6797985 Eh     change       -0.2050811E-01 Eh
 * total energy  :  -207.1938922 Eh     change       -0.7891050E-04 Eh
 * total energy  :  -207.1939391 Eh     change       -0.4698620E-04 Eh
 * total energy  :  -207.1939770 Eh     change       -0.3785027E-04 Eh
 * total energy  :  -207.1940142 Eh     change       -0.3718609E-04 Eh
 * total energy  :  -207.1940568 Eh     change       -0.4263214E-04 Eh
 * total energy  :  -207.1940973 Eh     change       -0.4046193E-04 Eh
 * total energy  :  -207.1941200 Eh     change       -0.2269294E-04 Eh
 * total energy  :  -207.1941261 Eh     change       -0.6092666E-05 Eh
 * total energy  :  -207.1941272 Eh     change       -0.1102347E-05 Eh
   *** GEOMETRY OPTIMIZATION CONVERGED AFTER 67 ITERATIONS ***

 final structure:
================
119
 xtb: 6.4.1 (bd6e46d)
Zn       11.91945646641624   -0.00439407022867   -0.01093957112905
C        14.44790968339407   -3.44302285337796   -0.00392784899139
C        15.40260088591472   -2.48149917083161   -0.00410344104577
C        14.71523542678454   -1.22171059321780   -0.00600540147246
C        15.35585765030400    0.02845111815828   -0.00657333628777
C        14.69168368013989    1.26617922351808   -0.00707083464912
C        15.35482761032242    2.53889000661755   -0.00467166272005
C        14.38187599286926    3.48195557841842   -0.00435775203348
C        13.12809684684973    2.78304042743422   -0.00685573189384
N        13.34842886260880    1.43810308384777   -0.00824746903067
C        11.88773604575153    3.39897921341846   -0.00855688738375
C        10.65994828650080    2.75824257745926   -0.01262012219270
C         9.38757976724745    3.42792668065978   -0.01611848860033
C         8.43935911625748    2.46230030535023   -0.02047687261308
C         9.13171224297969    1.20170857589536   -0.01910219297426
N        10.47388782742685    1.41217479746712   -0.01446121896900
C         8.51141199545579   -0.03704016525384   -0.02151338034626
C         9.15518372536863   -1.26372573256328   -0.01865168980704
C         8.48703022799173   -2.53731031483326   -0.01956718673554
C         9.45354159884438   -3.48462525346620   -0.01500292661426
C        10.71288530062630   -2.79073555450142   -0.01160461954588
N        10.50114465026729   -1.44849056445399   -0.01387432918951
C        11.95271894730701   -3.40786264255554   -0.00761954488299
C        13.18101318509458   -2.76825593878515   -0.00616786844232
N        13.37555030002109   -1.41932498888776   -0.00724736353395
H        14.57499777615183   -4.50839140699924   -0.00269145672286
H        16.46927894428468   -2.59696239885417   -0.00306754378892
H        16.41912507714478    2.67470574646149   -0.00321970106841
H        14.48852515656715    4.54956233784454   -0.00265815702143
H        11.87831944924401    4.48013193162587   -0.00715804186813
H         9.25696715809280    4.49311498795476   -0.01547520993494
H         7.37199719207170    2.57363436700903   -0.02413374198971
H         7.43044458474713   -0.04733894564772   -0.02543637137310
H         7.42197667575769   -2.66904470057667   -0.02314471248307
H         9.34332407147681   -4.55210939716137   -0.01402821989255
H        11.96404155598579   -4.48899649648948   -0.00615749344342
Zn       43.93139207376419    0.02670070179467   -0.00740719956765
C        41.41232289812249    3.41716859357268    0.60645350850077
C        40.45499927995800    2.47347339719556    0.43634626430505
C        41.13887012733964    1.23192713976602    0.21203186028552
C        40.49494861745087    0.00286741404915   -0.00673268905976
C        41.15572749926292   -1.21737391296470   -0.22453961810194
C        40.48899611128663   -2.46854138080341   -0.44789235403838
C        41.45930356364770   -3.39906258819154   -0.61694358283301
C        42.71506297920864   -2.71413076763146   -0.49634787869249
N        42.49850626447994   -1.38989579236916   -0.25780518030931
C        43.95370793479870   -3.32312614253673   -0.60939985990047
C        45.18326053764599   -2.69506299165141   -0.50078170352823
C        46.45376559527966   -3.35675602872849   -0.62467516593615
C        47.40464451887498   -2.40828612945010   -0.45792441345655
C        46.71576663572079   -1.16625465100014   -0.23165283465382
N        45.37301389129701   -1.37065458001372   -0.26324612705198
C        47.33945602803681    0.05160630312530   -0.01465157030963
C        46.69904981305294    1.26011911491319    0.20582963828019
C        47.37071326418115    2.51208719938909    0.42930278197233
C        46.40682709607060    3.44627711335067    0.60184947618490
C        45.14554378478713    2.76603928891419    0.48352259674010
N        45.35359179729586    1.44470247758901    0.24424759304342
C        43.90741973515825    3.37615168529793    0.59692365311474
C        42.67737319685350    2.74978035330079    0.48538923808071
N        42.47913523058471    1.42282728581684    0.24600303853484
H        41.28816741274902    4.46600308327406    0.79577520254367
H        39.38861489083019    2.58994720730211    0.45762479242387
H        39.42431301644899   -2.59958512522921   -0.46991407319281
H        41.34967935891424   -4.44951665548639   -0.80591009465225
H        43.96010874630634   -4.38725049311904   -0.80065622707661
H        46.58141611871410   -4.40536227723786   -0.81389751547563
H        48.47170089828032   -2.51997712856746   -0.48237947160997
H        48.42044669494655    0.05957311258264   -0.01747276722324
H        48.43612525429005    2.63957604296702    0.44800353323471
H        46.51999472758033    4.49655893362986    0.79104549540420
H        43.89908661983424    4.44003007666648    0.78945813786335
C        16.75352128006390    0.04083611781753   -0.00630621592247
C        17.97345492018199    0.05069377469727   -0.00435105095829
C        19.30968297210562    0.05709483207381   -0.00668848202026
C        20.53416296458043    0.05840770121511   -0.00143656659119
C        21.87026212204156    0.05737801866165   -0.00365986614381
C        23.09037934438234    0.05221297282482   -0.00086716424750
C        32.76018026130713   -0.01175835604959   -0.00984608822939
C        33.98032770281949   -0.01543149956617   -0.00938327234529
C        35.31650626322839   -0.01701476742127   -0.00899058144430
C        36.54088387009571   -0.01654985293564   -0.00896238324012
C        37.87719440484874   -0.01183782231527   -0.00846404218137
C        39.09714544701632   -0.00626447482595   -0.00721164182150
Zn       27.92526955103342    0.02004247772849   -0.00705221776092
C        25.40813622293727   -3.40398818764085    0.37405997265685
C        24.45001768843109   -2.45101475004337    0.27165447520676
C        25.13294260660286   -1.19698792978295    0.13219601670572
C        24.48740499327408    0.04365406432907   -0.00250150525115
C        25.14937814880772    1.27530831725244   -0.13888414300318
C        24.48331974997772    2.53851657547441   -0.27705491868047
C        25.45416312292453    3.47815931727830   -0.38279762694168
C        26.70867307810030    2.78595850997078   -0.30908854081821
N        26.49202443259606    1.44839725394475   -0.16095133957311
C        27.94788405674585    3.39920317470020   -0.37872592473175
C        29.17871610101656    2.76918367978415   -0.31047814029226
C        30.44240727279699    3.44425236071955   -0.38619357319488
C        31.40052369273269    2.49152999028801   -0.28160513281655
C        30.71757414893324    1.23739647886526   -0.14295117116415
N        29.37737190272014    1.42876625713661   -0.16285867888461
C        31.36304898205711   -0.00336834305970   -0.00966076431340
C        30.70113594080078   -1.23536646279350    0.12341152283611
C        31.36721015913039   -2.49886114920220    0.25907053871495
C        30.39638681985648   -3.43863604228690    0.36378316112951
C        29.14184397201214   -2.74625757087311    0.29162674129801
N        29.35846730300515   -1.40851392679162    0.14525828383376
C        27.90263929660751   -3.35938680916127    0.36239086433159
C        26.67182267453440   -2.72907805838814    0.29688172211872
N        26.47312738477606   -1.38855681376513    0.15016295427995
H        25.28489918060590   -4.46337888555567    0.49087656410250
H        23.38372265034458   -2.56890938675037    0.28730081561739
H        23.41870311809809    2.67100693009959   -0.28945748448732
H        25.34524165698344    4.53909005699091   -0.49967910189869
H        27.95515468339504    4.47389605369071   -0.49756321086397
H        30.56565326600374    4.50359077697424   -0.50348936854983
H        32.46682489974346    2.60961694331357   -0.29563836771668
H        32.43182934617789   -2.63137810904495    0.27107526828939
H        30.50533292461576   -4.49973718857121    0.47915994852574
H        27.89540124141463   -4.43421089894444    0.48005562331703

          :  Hamiltonian                  GFN2-xTB          :
         :: gradient norm              0.000505111522 Eh/a0 ::
         :: HOMO-LUMO gap              1.034255670759 eV    ::
         :: SCC energy              -211.150445874214 Eh    ::
         :: -> dispersion             -0.184875426604 Eh    ::
         :: repulsion energy           3.958860329871 Eh    ::

    * Orbital Energies and Occupations

         #    Occupation            Energy/Eh            Energy/eV
      -------------------------------------------------------------
         1        2.0000           -0.6682692             -18.1845
       ...           ...                  ...                  ...
       181        2.0000           -0.3968279             -10.7982
       182        2.0000           -0.3885025             -10.5717
       183        2.0000           -0.3868258             -10.5261
       184        2.0000           -0.3865971             -10.5198
       185        2.0000           -0.3865843             -10.5195
       186        2.0000           -0.3802909             -10.3482
       187        2.0000           -0.3797964             -10.3348
       188        2.0000           -0.3706472             -10.0858
       189        2.0000           -0.3694256             -10.0526
       190        2.0000           -0.3694154             -10.0523
       191        2.0000           -0.3673408              -9.9959
       192        2.0000           -0.3595601              -9.7841
       193        2.0000           -0.3511642              -9.5557 (HOMO)
       194                         -0.3131560              -8.5214 (LUMO)
       195                         -0.3037923              -8.2666
       196                         -0.2998475              -8.1593
       197                         -0.2987267              -8.1288
       198                         -0.2987177              -8.1285
       199                         -0.2969623              -8.0808
       200                         -0.2726296              -7.4186
       201                         -0.2625772              -7.1451
       202                         -0.2592409              -7.0543
       203                         -0.2525641              -6.8726
       204                         -0.2514914              -6.8434
       ...                                ...                  ...
       380                          1.7151373              46.6713
      -------------------------------------------------------------
                  HL-Gap            0.0380082 Eh            1.0343 eV

     #   Z          covCN         q      C6AA      α(0)
     1  30 Zn       3.042     0.245   122.297    21.603
     2   6 C        3.020    -0.052    29.265     8.874
     3   6 C        3.018    -0.050    29.231     8.869
     4   6 C        3.166     0.077    25.939     8.322
     5   6 C        2.953     0.017    27.641     8.623
     6   6 C        3.166     0.077    25.940     8.323
     7   6 C        3.018    -0.050    29.230     8.868
     8   6 C        3.020    -0.052    29.265     8.874
     9   6 C        3.149     0.076    26.050     8.349
    10   7 N        2.632    -0.177    24.840     7.402
    11   6 C        2.901    -0.050    29.234     8.865
    12   6 C        3.145     0.077    26.037     8.348
    13   6 C        3.017    -0.051    29.243     8.871
    14   6 C        3.018    -0.051    29.247     8.871
    15   6 C        3.145     0.077    26.028     8.347
    16   7 N        2.635    -0.175    24.791     7.395
    17   6 C        2.901    -0.051    29.278     8.872
    18   6 C        3.145     0.077    26.027     8.347
    19   6 C        3.018    -0.051    29.247     8.871
    20   6 C        3.017    -0.051    29.243     8.871
    21   6 C        3.145     0.077    26.037     8.348
    22   7 N        2.635    -0.175    24.792     7.395
    23   6 C        2.901    -0.050    29.233     8.865
    24   6 C        3.149     0.076    26.050     8.349
    25   7 N        2.632    -0.177    24.840     7.402
    26   1 H        0.926     0.034     2.533     2.489
    27   1 H        0.926     0.036     2.505     2.475
    28   1 H        0.926     0.036     2.505     2.475
    29   1 H        0.926     0.034     2.534     2.489
    30   1 H        0.926     0.049     2.329     2.387
    31   1 H        0.926     0.034     2.525     2.485
    32   1 H        0.926     0.034     2.527     2.486
    33   1 H        0.926     0.049     2.337     2.391
    34   1 H        0.926     0.034     2.527     2.486
    35   1 H        0.926     0.034     2.526     2.485
    36   1 H        0.926     0.049     2.329     2.386
    37  30 Zn       3.042     0.245   122.297    21.603
    38   6 C        3.020    -0.052    29.265     8.874
    39   6 C        3.018    -0.050    29.230     8.869
    40   6 C        3.166     0.077    25.939     8.323
    41   6 C        2.953     0.017    27.641     8.623
    42   6 C        3.166     0.077    25.940     8.323
    43   6 C        3.018    -0.050    29.230     8.868
    44   6 C        3.020    -0.052    29.265     8.874
    45   6 C        3.149     0.076    26.050     8.349
    46   7 N        2.631    -0.177    24.840     7.402
    47   6 C        2.901    -0.050    29.234     8.865
    48   6 C        3.145     0.077    26.037     8.348
    49   6 C        3.017    -0.051    29.243     8.871
    50   6 C        3.018    -0.051    29.247     8.871
    51   6 C        3.145     0.077    26.027     8.347
    52   7 N        2.635    -0.175    24.792     7.395
    53   6 C        2.901    -0.052    29.278     8.872
    54   6 C        3.145     0.077    26.028     8.347
    55   6 C        3.018    -0.051    29.246     8.871
    56   6 C        3.017    -0.051    29.243     8.871
    57   6 C        3.145     0.077    26.037     8.348
    58   7 N        2.635    -0.175    24.792     7.395
    59   6 C        2.901    -0.050    29.234     8.865
    60   6 C        3.149     0.076    26.049     8.349
    61   7 N        2.632    -0.177    24.840     7.402
    62   1 H        0.926     0.034     2.534     2.489
    63   1 H        0.926     0.036     2.506     2.475
    64   1 H        0.926     0.036     2.506     2.475
    65   1 H        0.926     0.034     2.534     2.489
    66   1 H        0.926     0.049     2.329     2.387
    67   1 H        0.926     0.034     2.526     2.485
    68   1 H        0.926     0.034     2.527     2.486
    69   1 H        0.926     0.049     2.337     2.391
    70   1 H        0.926     0.034     2.527     2.486
    71   1 H        0.926     0.034     2.526     2.485
    72   1 H        0.926     0.049     2.329     2.387
    73   6 C        1.997    -0.019    31.549     9.071
    74   6 C        1.963    -0.011    31.355     9.043
    75   6 C        1.964    -0.002    31.126     9.010
    76   6 C        1.964    -0.003    31.140     9.012
    77   6 C        1.963    -0.010    31.341     9.041
    78   6 C        1.997    -0.020    31.566     9.073
    79   6 C        1.997    -0.020    31.565     9.073
    80   6 C        1.963    -0.010    31.341     9.041
    81   6 C        1.964    -0.003    31.139     9.012
    82   6 C        1.964    -0.002    31.125     9.009
    83   6 C        1.963    -0.011    31.355     9.043
    84   6 C        1.997    -0.019    31.548     9.071
    85  30 Zn       3.038     0.247   122.273    21.600
    86   6 C        3.021    -0.052    29.260     8.873
    87   6 C        3.019    -0.051    29.231     8.869
    88   6 C        3.168     0.078    25.929     8.320
    89   6 C        2.953     0.017    27.636     8.622
    90   6 C        3.167     0.078    25.929     8.320
    91   6 C        3.018    -0.050    29.230     8.868
    92   6 C        3.021    -0.052    29.260     8.873
    93   6 C        3.151     0.075    26.054     8.349
    94   7 N        2.632    -0.177    24.844     7.403
    95   6 C        2.901    -0.048    29.182     8.857
    96   6 C        3.151     0.075    26.053     8.349
    97   6 C        3.021    -0.052    29.260     8.873
    98   6 C        3.018    -0.051    29.231     8.869
    99   6 C        3.168     0.078    25.929     8.320
   100   7 N        2.632    -0.177    24.843     7.403
   101   6 C        2.953     0.017    27.636     8.622
   102   6 C        3.167     0.078    25.929     8.320
   103   6 C        3.018    -0.050    29.230     8.868
   104   6 C        3.021    -0.052    29.260     8.873
   105   6 C        3.151     0.075    26.053     8.349
   106   7 N        2.632    -0.177    24.844     7.403
   107   6 C        2.901    -0.048    29.182     8.857
   108   6 C        3.151     0.075    26.054     8.349
   109   7 N        2.632    -0.177    24.843     7.403
   110   1 H        0.926     0.034     2.532     2.488
   111   1 H        0.926     0.036     2.505     2.475
   112   1 H        0.926     0.036     2.505     2.475
   113   1 H        0.926     0.034     2.532     2.488
   114   1 H        0.925     0.050     2.321     2.382
   115   1 H        0.926     0.034     2.532     2.488
   116   1 H        0.926     0.036     2.505     2.475
   117   1 H        0.926     0.036     2.505     2.475
   118   1 H        0.926     0.034     2.532     2.488
   119   1 H        0.925     0.050     2.321     2.382

Wiberg/Mayer (AO) data.
largest (>0.10) Wiberg bond orders for each atom

     #   Z sym  total        # sym  WBO       # sym  WBO       # sym  WBO
 ---------------------------------------------------------------------------
     1  30 Zn   2.081 --    16 N    0.491    22 N    0.491    25 N    0.489
                            10 N    0.489
     2   6 C    3.953 --     3 C    1.650    24 C    1.171    26 H    0.972
     3   6 C    3.957 --     2 C    1.650     4 C    1.180    27 H    0.971
     4   6 C    3.910 --    25 N    1.286     5 C    1.250     3 C    1.180
     5   6 C    3.942 --     6 C    1.251     4 C    1.250    73 C    1.187
     6   6 C    3.910 --    10 N    1.286     5 C    1.251     7 C    1.180
     7   6 C    3.957 --     8 C    1.650     6 C    1.180    28 H    0.971
     8   6 C    3.953 --     7 C    1.650     9 C    1.171    29 H    0.972
     9   6 C    3.924 --    11 C    1.358    10 N    1.247     8 C    1.171
    10   7 N    3.467 --     6 C    1.286     9 C    1.247     1 Zn   0.489
    11   6 C    3.931 --     9 C    1.358    12 C    1.354    30 H    0.964
    12   6 C    3.929 --    11 C    1.354    16 N    1.261    13 C    1.163
    13   6 C    3.957 --    14 C    1.666    12 C    1.163    31 H    0.972
    14   6 C    3.955 --    13 C    1.666    15 C    1.162    32 H    0.972
    15   6 C    3.932 --    17 C    1.354    16 N    1.263    14 C    1.162
    16   7 N    3.464 --    15 C    1.263    12 C    1.261     1 Zn   0.491
    17   6 C    3.926 --    18 C    1.354    15 C    1.354    33 H    0.964
    18   6 C    3.932 --    17 C    1.354    22 N    1.263    19 C    1.162
    19   6 C    3.955 --    20 C    1.666    18 C    1.162    34 H    0.972
    20   6 C    3.957 --    19 C    1.666    21 C    1.163    35 H    0.972
    21   6 C    3.929 --    23 C    1.354    22 N    1.261    20 C    1.163
    22   7 N    3.464 --    18 C    1.263    21 C    1.261     1 Zn   0.491
    23   6 C    3.931 --    24 C    1.358    21 C    1.354    36 H    0.964
    24   6 C    3.924 --    23 C    1.358    25 N    1.247     2 C    1.171
    25   7 N    3.467 --     4 C    1.286    24 C    1.247     1 Zn   0.489
    26   1 H    0.998 --     2 C    0.972
    27   1 H    0.998 --     3 C    0.971
    28   1 H    0.998 --     7 C    0.971
    29   1 H    0.998 --     8 C    0.972
    30   1 H    0.996 --    11 C    0.964
    31   1 H    0.998 --    13 C    0.972
    32   1 H    0.998 --    14 C    0.972
    33   1 H    0.996 --    17 C    0.964
    34   1 H    0.998 --    19 C    0.972
    35   1 H    0.998 --    20 C    0.972
    36   1 H    0.996 --    23 C    0.964
    37  30 Zn   2.081 --    52 N    0.491    58 N    0.491    61 N    0.489
                            46 N    0.489
    38   6 C    3.953 --    39 C    1.650    60 C    1.171    62 H    0.972
    39   6 C    3.957 --    38 C    1.650    40 C    1.179    63 H    0.971
    40   6 C    3.911 --    61 N    1.286    41 C    1.251    39 C    1.179
    41   6 C    3.942 --    42 C    1.251    40 C    1.251    84 C    1.187
    42   6 C    3.911 --    46 N    1.286    41 C    1.251    43 C    1.179
    43   6 C    3.957 --    44 C    1.650    42 C    1.179    64 H    0.971
    44   6 C    3.953 --    43 C    1.650    45 C    1.171    65 H    0.972
    45   6 C    3.924 --    47 C    1.358    46 N    1.247    44 C    1.171
    46   7 N    3.467 --    42 C    1.286    45 C    1.247    37 Zn   0.489
    47   6 C    3.931 --    45 C    1.358    48 C    1.354    66 H    0.964
    48   6 C    3.929 --    47 C    1.354    52 N    1.261    49 C    1.163
    49   6 C    3.957 --    50 C    1.666    48 C    1.163    67 H    0.972
    50   6 C    3.955 --    49 C    1.666    51 C    1.162    68 H    0.972
    51   6 C    3.932 --    53 C    1.354    52 N    1.263    50 C    1.162
    52   7 N    3.464 --    51 C    1.263    48 C    1.261    37 Zn   0.491
    53   6 C    3.926 --    54 C    1.354    51 C    1.354    69 H    0.964
    54   6 C    3.932 --    53 C    1.354    58 N    1.263    55 C    1.162
    55   6 C    3.955 --    56 C    1.666    54 C    1.162    70 H    0.972
    56   6 C    3.957 --    55 C    1.666    57 C    1.163    71 H    0.972
    57   6 C    3.929 --    59 C    1.354    58 N    1.261    56 C    1.163
    58   7 N    3.464 --    54 C    1.263    57 C    1.261    37 Zn   0.491
    59   6 C    3.931 --    60 C    1.358    57 C    1.354    72 H    0.964
    60   6 C    3.924 --    59 C    1.358    61 N    1.247    38 C    1.171
    61   7 N    3.467 --    40 C    1.286    60 C    1.247    37 Zn   0.489
    62   1 H    0.998 --    38 C    0.972
    63   1 H    0.998 --    39 C    0.971
    64   1 H    0.998 --    43 C    0.971
    65   1 H    0.998 --    44 C    0.972
    66   1 H    0.996 --    47 C    0.964
    67   1 H    0.998 --    49 C    0.972
    68   1 H    0.998 --    50 C    0.972
    69   1 H    0.996 --    53 C    0.964
    70   1 H    0.998 --    55 C    0.972
    71   1 H    0.998 --    56 C    0.972
    72   1 H    0.996 --    59 C    0.964
    73   6 C    3.883 --    74 C    2.442     5 C    1.187    76 C    0.193
    74   6 C    3.927 --    73 C    2.442    75 C    1.332
    75   6 C    3.918 --    76 C    2.356    74 C    1.332    78 C    0.193
    76   6 C    3.920 --    75 C    2.356    77 C    1.333    73 C    0.193
    77   6 C    3.924 --    78 C    2.440    76 C    1.333
    78   6 C    3.884 --    77 C    2.440    89 C    1.190    75 C    0.193
    79   6 C    3.884 --    80 C    2.440   101 C    1.190    82 C    0.192
    80   6 C    3.924 --    79 C    2.440    81 C    1.333
    81   6 C    3.920 --    82 C    2.357    80 C    1.333    84 C    0.193
    82   6 C    3.918 --    81 C    2.357    83 C    1.332    79 C    0.192
    83   6 C    3.927 --    84 C    2.443    82 C    1.332
    84   6 C    3.883 --    83 C    2.443    41 C    1.187    81 C    0.193
    85  30 Zn   2.076 --   100 N    0.489   109 N    0.489   106 N    0.489
                            94 N    0.489
    86   6 C    3.954 --    87 C    1.648   108 C    1.173   110 H    0.972
    87   6 C    3.955 --    86 C    1.648    88 C    1.181   111 H    0.971
    88   6 C    3.911 --   109 N    1.287    89 C    1.248    87 C    1.181
    89   6 C    3.930 --    90 C    1.248    88 C    1.248    78 C    1.190
    90   6 C    3.911 --    94 N    1.287    89 C    1.248    91 C    1.181
    91   6 C    3.955 --    92 C    1.648    90 C    1.181   112 H    0.971
    92   6 C    3.954 --    91 C    1.648    93 C    1.173   113 H    0.972
    93   6 C    3.923 --    95 C    1.356    94 N    1.245    92 C    1.173
    94   7 N    3.460 --    90 C    1.287    93 C    1.245    85 Zn   0.489
    95   6 C    3.926 --    93 C    1.356    96 C    1.356   114 H    0.964
    96   6 C    3.923 --    95 C    1.356   100 N    1.245    97 C    1.173
    97   6 C    3.954 --    98 C    1.648    96 C    1.173   115 H    0.972
    98   6 C    3.955 --    97 C    1.648    99 C    1.181   116 H    0.971
    99   6 C    3.911 --   100 N    1.287   101 C    1.248    98 C    1.181
   100   7 N    3.460 --    99 C    1.287    96 C    1.245    85 Zn   0.489
   101   6 C    3.930 --   102 C    1.248    99 C    1.248    79 C    1.190
   102   6 C    3.911 --   106 N    1.287   101 C    1.248   103 C    1.181
   103   6 C    3.955 --   104 C    1.648   102 C    1.181   117 H    0.971
   104   6 C    3.954 --   103 C    1.648   105 C    1.173   118 H    0.972
   105   6 C    3.923 --   107 C    1.356   106 N    1.245   104 C    1.173
   106   7 N    3.460 --   102 C    1.287   105 C    1.245    85 Zn   0.489
   107   6 C    3.926 --   108 C    1.356   105 C    1.356   119 H    0.964
   108   6 C    3.923 --   107 C    1.356   109 N    1.245    86 C    1.173
   109   7 N    3.460 --    88 C    1.287   108 C    1.245    85 Zn   0.489
   110   1 H    0.998 --    86 C    0.972
   111   1 H    0.998 --    87 C    0.971
   112   1 H    0.998 --    91 C    0.971
   113   1 H    0.998 --    92 C    0.972
   114   1 H    0.996 --    95 C    0.964
   115   1 H    0.998 --    97 C    0.972
   116   1 H    0.998 --    98 C    0.971
   117   1 H    0.998 --   103 C    0.971
   118   1 H    0.998 --   104 C    0.972
   119   1 H    0.996 --   107 C    0.964
 ---------------------------------------------------------------------------

molecular dipole:
                 x           y           z       tot (Debye)
 q only:       -0.001      -0.001      -0.001
   full:       -0.001      -0.001      -0.003       0.008

 projected vibrational frequencies (cm⁻¹)
eigval :       -0.00    -0.00    -0.00     0.00     0.00     0.00
eigval :        1.84     1.95     2.41     4.06     7.03     7.55
eigval :       12.58    18.69    20.81    26.92    35.12    39.66
eigval :       41.04    41.15    46.39    48.16    60.65    70.32
eigval :       71.55    74.46    78.11    87.77    92.92    93.29
eigval :       94.09   114.21   124.49   127.34   127.50   127.97
eigval :      136.57   160.69   164.86   166.06   166.79   171.37
eigval :      173.88   177.46   180.00   181.08   181.21   184.83
eigval :      188.55   196.01   197.26   198.39   198.42   198.54
eigval :      198.61   200.51   202.58   202.60   202.73   203.36
eigval :      208.88   212.37   218.29   225.44   250.28   261.94
eigval :      262.64   262.82   272.28   286.95   295.66   299.12
eigval :      312.32   318.92   319.11   320.51   321.22   337.46
eigval :      337.58   346.75   346.85   350.13   351.20   354.87
eigval :      355.47   357.20   357.44   360.34   360.54   363.00
eigval :      365.67   375.21   377.54   382.81   383.75   384.15
eigval :      385.27   385.37   393.53   393.67   396.60   397.46
eigval :      397.58   403.25   426.30   426.65   427.69   431.57
eigval :      431.65   451.85   454.90   454.94   457.77   466.38
eigval :      478.79   505.50   509.21   509.34   512.24   622.89
eigval :      623.72   623.92   624.45   627.86   628.04   631.19
eigval :      631.38   634.42   642.05   645.96   646.09   648.15
eigval :      648.33   655.49   660.03   660.67   660.91   663.27
eigval :      663.48   671.48   673.89   674.03   675.66   703.32
eigval :      709.08   723.46   724.73   731.27   731.37   759.52
eigval :      760.55   760.57   763.46   763.85   764.60   769.13
eigval :      772.03   776.07   776.08   781.38   781.62   796.95
eigval :      797.62   797.77   798.85   799.70   799.80   805.13
eigval :      807.52   807.64   807.74   812.86   813.01   817.98
eigval :      819.62   820.17   820.30   829.69   829.75   836.92
eigval :      836.99   838.34   838.83   840.26   840.33   843.70
eigval :      843.80   844.36   846.45   846.61   846.72   847.46
eigval :      847.56   847.94   848.60   848.68   848.73   901.18
eigval :      901.79   962.14   963.48   990.96   991.10  1003.63
eigval :     1003.71  1004.77  1005.70  1022.21  1024.14  1026.05
eigval :     1026.07  1026.50  1033.95  1036.43  1036.44  1037.61
eigval :     1037.68  1041.64  1045.83  1045.87  1050.29  1067.75
eigval :     1067.76  1068.64  1069.23  1069.77  1070.01  1070.99
eigval :     1071.06  1071.53  1073.08  1073.23  1073.49  1079.77
eigval :     1087.15  1139.06  1146.69  1155.42  1155.47  1159.73
eigval :     1166.08  1169.72  1173.62  1176.82  1176.83  1176.84
eigval :     1213.61  1225.84  1225.93  1239.80  1239.95  1241.37
eigval :     1272.43  1273.64  1281.27  1285.86  1285.88  1296.14
eigval :     1301.10  1301.46  1301.50  1305.34  1311.60  1317.26
eigval :     1318.21  1318.29  1326.73  1330.22  1333.80  1333.99
eigval :     1342.67  1342.70  1347.10  1348.89  1349.04  1350.61
eigval :     1362.58  1366.09  1366.46  1367.15  1367.19  1424.19
eigval :     1429.45  1443.38  1446.18  1449.37  1449.45  1452.42
eigval :     1469.70  1470.50  1483.27  1483.52  1496.16  1499.30
eigval :     1503.67  1503.97  1507.81  1507.84  1510.16  1513.92
eigval :     1513.95  1514.22  1516.27  1522.69  1523.56  1531.39
eigval :     1531.43  1537.44  1543.31  1549.67  1549.72  1555.06
eigval :     1555.09  1564.57  1564.86  1566.28  1591.92  1598.98
eigval :     1598.98  2153.86  2158.32  2201.92  2202.36  2262.57
eigval :     2263.29  3077.28  3077.63  3077.79  3077.87  3078.26
eigval :     3078.34  3079.54  3079.59  3146.46  3146.50  3146.82
eigval :     3146.86  3150.72  3151.12  3151.18  3151.28  3151.36
eigval :     3151.46  3151.75  3151.89  3160.03  3160.11  3161.02
eigval :     3161.11  3164.50  3164.75  3164.88  3165.35  3165.49
eigval :     3165.80  3166.01  3166.13

   temp. (K)  partition function   enthalpy   heat capacity  entropy
                                   cal/mol     cal/K/mol   cal/K/mol   J/K/mol
 298.15  VIB  0.312E+38            43342.544    275.283    277.710
         ROT  0.120E+10              888.752      2.981     44.520
         INT  0.374E+47            44231.297    278.264    322.230
         TR   0.433E+29             1481.254      4.968     47.252
         TOT                       45712.5506   283.2319   369.4821  1545.9131

       T/K    H(0)-H(T)+PV         H(T)/Eh          T*S/Eh         G(T)/Eh
   ------------------------------------------------------------------------
    298.15    0.728476E-01    0.882772E+00    0.175553E+00    0.707219E+00
   ------------------------------------------------------------------------

         :::::::::::::::::::::::::::::::::::::::::::::::::::::
         ::                  THERMODYNAMIC                  ::
         :::::::::::::::::::::::::::::::::::::::::::::::::::::
         :: total free energy        -206.486907938963 Eh   ::
         ::.................................................::
         :: total energy             -207.194127160097 Eh   ::
         :: zero point energy           0.809924507652 Eh   ::
         :: G(RRHO) w/o ZPVE           -0.102705286518 Eh   ::
         :: G(RRHO) contrib.            0.707219221134 Eh   ::
         :::::::::::::::::::::::::::::::::::::::::::::::::::::

           -------------------------------------------------
          | TOTAL ENERGY             -207.194127160097 Eh   |
          | TOTAL ENTHALPY           -206.311355066155 Eh   |
          | TOTAL FREE ENERGY        -206.486907938963 Eh   |
          | GRADIENT NORM               0.000505191915 Eh/α |
          | HOMO-LUMO GAP               1.034256538106 eV   |
           -------------------------------------------------

 * finished run on 2021/11/18 at 18:50:21.165
