   * xtb version 6.4.1 (bd6e46d) compiled by 'conda@4901f00b25ba' on 2021-06-10
          program call               : /home/jeff/miniconda3/bin/xtb input_structure_1.xyz --gfn 2 --ohess normal --parallel 1 --etemp 300 --chrg 0 --uhf 0 -I det_control.in
          number of atoms            :                   111
          number of electrons        :                   372
          charge                     :                     0
          spin                       :                   0.0

   ID    Z sym.   atoms
    1   26 Fe     1, 37, 77
    2    6 C      2-9, 11-15, 17-21, 23, 24, 38-45, 47-51, 53-57, 59, 60,
                  73-76, 78-85, 87-91, 93-97, 99, 100
    3    7 N      10, 16, 22, 25, 46, 52, 58, 61, 86, 92, 98, 101
    4    1 H      26-36, 62-72, 102-111

          :  Hamiltonian                  GFN2-xTB          :
 * total energy  :  -197.0599190 Eh     change       -0.2463813E-07 Eh
 * total energy  :  -197.2432204 Eh     change       -0.1833013E+00 Eh
 * total energy  :  -197.3485871 Eh     change       -0.1053668E+00 Eh
 * total energy  :  -197.4080289 Eh     change       -0.5944179E-01 Eh
 * total energy  :  -197.4604157 Eh     change       -0.5238679E-01 Eh
 * total energy  :  -197.5145990 Eh     change       -0.5418328E-01 Eh
 * total energy  :  -197.5726994 Eh     change       -0.5810043E-01 Eh
 * total energy  :  -197.6298685 Eh     change       -0.5716908E-01 Eh
 * total energy  :  -197.6805294 Eh     change       -0.5066097E-01 Eh
 * total energy  :  -197.7148584 Eh     change       -0.3432891E-01 Eh
 * total energy  :  -197.9996516 Eh     change       -0.6722564E-04 Eh
 * total energy  :  -197.9996736 Eh     change       -0.2206754E-04 Eh
 * total energy  :  -197.9996889 Eh     change       -0.1524443E-04 Eh
 * total energy  :  -197.9997045 Eh     change       -0.1565699E-04 Eh
 * total energy  :  -197.9997281 Eh     change       -0.2354411E-04 Eh
 * total energy  :  -197.9997373 Eh     change       -0.9180844E-05 Eh
 * total energy  :  -197.9997481 Eh     change       -0.1080587E-04 Eh
 * total energy  :  -197.9997556 Eh     change       -0.7579540E-05 Eh
 * total energy  :  -197.9997587 Eh     change       -0.3047187E-05 Eh
   *** GEOMETRY OPTIMIZATION CONVERGED AFTER 101 ITERATIONS ***

 final structure:
================
111
 xtb: 6.4.1 (bd6e46d)
Fe       16.85079210533145   -0.00350384619585   -0.01492917134779
C        19.31339208218517   -3.25210888280896    1.03116711612187
C        20.31442425969270   -2.37489889910006    0.78520558901503
C        19.68988975463792   -1.15784852099980    0.36615597570576
C        20.37917202565107   -0.00415725609989   -0.01756302019343
C        19.68918758601851    1.14782745816996   -0.40542229797472
C        20.31320889805681    2.36102705875481   -0.83625485090641
C        19.31174139223827    3.23456397598230   -1.09323058707168
C        18.08162925849229    2.54814342267162   -0.82229178523561
N        18.33296580399534    1.26528917891822   -0.41196407509020
C        16.84686622999650    3.15251617259620   -0.95725741188863
C        15.61320945718152    2.57352285384336   -0.73508819260229
C        14.37781892694379    3.28919571659765   -0.89631311459270
C        13.38112707328122    2.41669443623953   -0.62606528520443
C        14.01058145783724    1.16950873908481   -0.30143167599590
N        15.36918693823857    1.28021758522888   -0.36409316619626
C        13.34040451177849    0.00416465418559    0.01338803755571
C        14.01050656896017   -1.16524187331518    0.31278380547349
C        13.38086903604818   -2.41215205651372    0.63838387446535
C        14.37794290150817   -3.29232054346671    0.88089381228863
C        15.61375240352223   -2.58069264428355    0.70517275567605
N        15.36948309350113   -1.28292137932393    0.35029951723891
C        16.84794756036078   -3.16641281756957    0.90549641727362
C        18.08294247490778   -2.56281870798965    0.76905659105304
N        18.33371489983783   -1.27589809343356    0.37162037970765
H        19.38183057079931   -4.27062697206573    1.36147499613869
H        21.37313629596203   -2.51417441558331    0.88152007634165
H        21.37182718707215    2.50039401418894   -0.93368750559410
H        19.37969613867214    4.24916332587625   -1.43536973701290
H        16.84769819132295    4.18689844079436   -1.27083355088603
H        14.30697899863257    4.32170900184265   -1.18004253111945
H        12.32075945505159    2.57946171872343   -0.64101194821027
H        12.26147935205959    0.00681963358801    0.02332994654157
H        12.32013125221460   -2.56967436508247    0.67157279150485
H        14.30718592191286   -4.32723514320320    1.15582690461033
H        16.84888601690097   -4.20452076995220    1.20658031893486
Fe       39.00099916059509    0.04376673917099   -0.01202615710753
C        36.53745590959124    3.22946261956979    1.21423178948109
C        35.53639483403848    2.37353192064206    0.90229946624100
C        36.16225597839143    1.17970935318400    0.42235546944802
C        35.47356901699840    0.04764475977578   -0.02126434974229
C        36.16212427592405   -1.08388992148487   -0.46646288294441
C        35.53622354190225   -2.27354394854258   -0.95677223486135
C        36.53711606573032   -3.13013673576377   -1.26741665816563
C        37.76834244641641   -2.45656642685783   -0.96985597255331
N        37.51825483625855   -1.19918207753418   -0.48667329130387
C        39.00348573906339   -3.04591137090569   -1.15679152618476
C        40.23754142669333   -2.47575871737668   -0.91450011031907
C        41.47320213836066   -3.17302560820532   -1.14112479619634
C        42.47017429102077   -2.31835884108084   -0.81978559452641
C        41.84059296706118   -1.10095901033713   -0.39722023122771
N        40.48160580152891   -1.21107759903087   -0.45553023844373
C        42.51089047450151    0.03652192568599    0.00643614730121
C        41.84116757835326    1.17691281765267    0.40282277641312
C        42.47139188441702    2.39153518956062    0.83241555898202
C        41.47467986882078    3.25083817196929    1.14197954017304
C        40.23854386320019    2.55919997307828    0.90107212502688
N        40.48216522981733    1.29309809965695    0.44576488888490
C        39.00435586468914    3.13551869933283    1.12747142288243
C        37.76878680540631    2.55076400958129    0.92918932113854
N        37.51851851007331    1.29204506620790    0.44952889785087
H        36.46850202577819    4.22695383439786    1.60340133058221
H        34.47686264425862    2.51261084801604    0.99075138203747
H        34.47689980586112   -2.40899362321902   -1.05340322180305
H        36.46813437526697   -4.12507370530948   -1.66304442358045
H        39.00294614813609   -4.05873723976139   -1.53425303422784
H        41.54390306125939   -4.18198230995317   -1.49975670103355
H        43.53084920818305   -2.47510713362767   -0.85817546356782
H        43.58983924743509    0.03424631397797    0.01211710045882
H        43.53225721705913    2.54340311414988    0.88314603687219
H        41.54580141241442    4.25940704278073    1.50163853026038
H        39.00403134287694    4.14921912949415    1.50259682694655
C        21.78049273753363   -0.00293104845617   -0.01527606597355
C        22.99327063140991   -0.00838952586652   -0.01474604621626
C        32.85971119726207    0.03994984770584   -0.01368524006491
C        34.07230209660874    0.04618375465074   -0.01878296383112
Fe       27.92666391826063    0.01499971101048    0.00000134513535
C        25.48213855967604   -3.40634935893111   -0.14928484754271
C        24.47569861092879   -2.50118388348972   -0.16141767658162
C        25.09144192977759   -1.21273392466606   -0.07345400912276
C        24.39418182736300   -0.00281096658289   -0.01007311206782
C        25.07870272478295    1.21415607363679    0.06032467402443
C        24.44944905875728    2.49575690959844    0.15193525941356
C        25.44687373798638    3.41094297828403    0.15368056915536
C        26.67923925266467    2.68210985730417    0.06869358535123
N        26.43357608896023    1.33474139112286    0.02733578980142
C        27.91040915200711    3.30469459490005    0.00840622201474
C        29.14796717132029    2.69573332520198   -0.05765726615231
C        30.37311199237965    3.43708632646157   -0.14019354947280
C        31.37931007037852    2.53160305384170   -0.14969865042133
C        30.76233977339292    1.24330068338963   -0.06618618474460
N        29.40665933578236    1.35052650496262   -0.02717120779350
C        31.45888900601176    0.03298586111430   -0.00710850085222
C        30.77534936245793   -1.18438412425232    0.05964150330730
C        31.40553523514816   -2.46590382245391    0.14877802930381
C        30.40825322457365   -3.38132027468765    0.15148975788830
C        29.17542876271773   -2.65281523201279    0.06826069890328
N        29.42060149036552   -1.30542150937771    0.02775072843900
C        27.94386287740118   -3.27444059451484    0.00695098000769
C        26.70669679689387   -2.66465495021310   -0.06174922139017
N        26.44730402734496   -1.31953477818713   -0.03084942681829
H        25.42079388625613   -4.47651997587647   -0.19570410607843
H        23.41879684735905   -2.66733690842537   -0.23195473716238
H        23.39055695496144    2.65097315882866    0.21642204979805
H        25.37442390100882    4.48006158976231    0.20754209606553
H        27.90453798193285    4.38561296333061    0.01253324293770
H        30.43516664363644    4.50727391183910   -0.18520421944929
H        32.43667199317015    2.69736695017001   -0.21520395635880
H        32.46481377634889   -2.62072438943336    0.21081478161353
H        30.48126686183844   -4.45045766423181    0.20448309725991
H        27.94872942394750   -4.35538007431376    0.01107485537365

          :  Hamiltonian                  GFN2-xTB          :
         :: gradient norm              0.000573109955 Eh/a0 ::
         :: HOMO-LUMO gap              0.242553019470 eV    ::
         :: SCC energy              -201.404682042104 Eh    ::
         :: -> dispersion             -0.161309201991 Eh    ::
         :: repulsion energy           3.407201547130 Eh    ::

    * Orbital Energies and Occupations

         #    Occupation            Energy/Eh            Energy/eV
      -------------------------------------------------------------
         1        2.0000           -0.6663776             -18.1331
       ...           ...                  ...                  ...
       174        2.0000           -0.3629792              -9.8772
       175        2.0000           -0.3629728              -9.8770
       176        2.0000           -0.3603533              -9.8057
       177        2.0000           -0.3492447              -9.5034
       178        2.0000           -0.3379797              -9.1969
       179        2.0000           -0.3377157              -9.1897
       180        2.0000           -0.3376506              -9.1879
       181        2.0000           -0.3365548              -9.1581
       182        2.0000           -0.3363126              -9.1515
       183        2.0000           -0.3363031              -9.1513
       184        1.9893           -0.3289832              -8.9521
       185        1.9815           -0.3284584              -8.9378
       186        1.9807           -0.3284200              -8.9368 (HOMO)
       187        0.0171           -0.3195063              -8.6942 (LUMO)
       188        0.0163           -0.3194556              -8.6928
       189        0.0152           -0.3193908              -8.6911
       190                         -0.3046031              -8.2887
       191                         -0.2928044              -7.9676
       192                         -0.2895412              -7.8788
       193                         -0.2890986              -7.8668
       194                         -0.2890853              -7.8664
       195                         -0.2809941              -7.6462
       196                         -0.2598545              -7.0710
       197                         -0.2510933              -6.8326
       ...                                ...                  ...
       363                          1.4198649              38.6365
      -------------------------------------------------------------
                  HL-Gap            0.0089137 Eh            0.2426 eV

     #   Z          covCN         q      C6AA      α(0)
     1  26 Fe       3.084     0.562     5.146     7.318
     2   6 C        3.026    -0.055    29.327     8.883
     3   6 C        3.014    -0.054    29.327     8.883
     4   6 C        3.181     0.070    26.033     8.329
     5   6 C        2.955     0.012    27.755     8.641
     6   6 C        3.181     0.070    26.033     8.329
     7   6 C        3.014    -0.054    29.328     8.883
     8   6 C        3.026    -0.055    29.327     8.883
     9   6 C        3.159     0.064    26.265     8.379
    10   7 N        2.638    -0.214    25.666     7.524
    11   6 C        2.903    -0.061    29.508     8.907
    12   6 C        3.155     0.065    26.254     8.379
    13   6 C        3.023    -0.054    29.303     8.879
    14   6 C        3.013    -0.055    29.354     8.887
    15   6 C        3.166     0.070    26.096     8.348
    16   7 N        2.638    -0.213    25.645     7.521
    17   6 C        2.903    -0.059    29.476     8.902
    18   6 C        3.166     0.070    26.097     8.348
    19   6 C        3.013    -0.055    29.354     8.887
    20   6 C        3.023    -0.054    29.304     8.880
    21   6 C        3.155     0.065    26.254     8.379
    22   7 N        2.638    -0.213    25.644     7.521
    23   6 C        2.903    -0.061    29.508     8.907
    24   6 C        3.159     0.064    26.264     8.379
    25   7 N        2.637    -0.214    25.668     7.524
    26   1 H        0.926     0.030     2.582     2.513
    27   1 H        0.926     0.032     2.561     2.503
    28   1 H        0.926     0.032     2.560     2.502
    29   1 H        0.926     0.030     2.582     2.513
    30   1 H        0.926     0.049     2.330     2.387
    31   1 H        0.926     0.030     2.580     2.512
    32   1 H        0.926     0.031     2.576     2.510
    33   1 H        0.926     0.047     2.357     2.401
    34   1 H        0.926     0.031     2.576     2.510
    35   1 H        0.926     0.030     2.580     2.512
    36   1 H        0.926     0.049     2.330     2.387
    37  26 Fe       3.083     0.562     5.146     7.318
    38   6 C        3.026    -0.055    29.327     8.883
    39   6 C        3.014    -0.054    29.327     8.883
    40   6 C        3.182     0.070    26.029     8.328
    41   6 C        2.955     0.012    27.756     8.641
    42   6 C        3.182     0.070    26.029     8.328
    43   6 C        3.014    -0.054    29.330     8.884
    44   6 C        3.026    -0.055    29.326     8.883
    45   6 C        3.159     0.064    26.263     8.378
    46   7 N        2.637    -0.214    25.668     7.524
    47   6 C        2.903    -0.061    29.509     8.907
    48   6 C        3.155     0.065    26.253     8.378
    49   6 C        3.023    -0.054    29.304     8.880
    50   6 C        3.013    -0.055    29.354     8.887
    51   6 C        3.166     0.070    26.097     8.348
    52   7 N        2.638    -0.213    25.644     7.521
    53   6 C        2.903    -0.059    29.475     8.902
    54   6 C        3.166     0.070    26.096     8.348
    55   6 C        3.013    -0.055    29.354     8.887
    56   6 C        3.023    -0.054    29.304     8.880
    57   6 C        3.155     0.065    26.253     8.378
    58   7 N        2.638    -0.213    25.644     7.521
    59   6 C        2.903    -0.061    29.508     8.907
    60   6 C        3.159     0.064    26.263     8.378
    61   7 N        2.637    -0.214    25.669     7.525
    62   1 H        0.926     0.030     2.582     2.513
    63   1 H        0.926     0.032     2.560     2.502
    64   1 H        0.926     0.032     2.558     2.501
    65   1 H        0.926     0.030     2.582     2.513
    66   1 H        0.926     0.049     2.331     2.387
    67   1 H        0.926     0.030     2.580     2.512
    68   1 H        0.926     0.031     2.576     2.510
    69   1 H        0.926     0.047     2.357     2.401
    70   1 H        0.926     0.031     2.576     2.510
    71   1 H        0.926     0.030     2.580     2.512
    72   1 H        0.926     0.049     2.331     2.387
    73   6 C        1.987    -0.031    31.868     9.117
    74   6 C        1.987    -0.031    31.872     9.117
    75   6 C        1.987    -0.031    31.872     9.117
    76   6 C        1.988    -0.031    31.868     9.117
    77  26 Fe       3.081     0.566     5.144     7.316
    78   6 C        3.026    -0.055    29.326     8.883
    79   6 C        3.015    -0.054    29.326     8.883
    80   6 C        3.181     0.070    26.024     8.327
    81   6 C        2.955     0.011    27.759     8.642
    82   6 C        3.182     0.070    26.023     8.327
    83   6 C        3.015    -0.054    29.330     8.884
    84   6 C        3.026    -0.055    29.326     8.883
    85   6 C        3.159     0.064    26.268     8.379
    86   7 N        2.637    -0.215    25.694     7.528
    87   6 C        2.903    -0.059    29.473     8.902
    88   6 C        3.160     0.064    26.267     8.379
    89   6 C        3.026    -0.055    29.325     8.883
    90   6 C        3.014    -0.054    29.329     8.883
    91   6 C        3.182     0.070    26.020     8.326
    92   7 N        2.637    -0.215    25.697     7.529
    93   6 C        2.955     0.011    27.759     8.642
    94   6 C        3.182     0.070    26.020     8.326
    95   6 C        3.014    -0.054    29.330     8.884
    96   6 C        3.026    -0.055    29.325     8.883
    97   6 C        3.159     0.064    26.267     8.379
    98   7 N        2.637    -0.215    25.698     7.529
    99   6 C        2.903    -0.059    29.474     8.902
   100   6 C        3.159     0.064    26.269     8.379
   101   7 N        2.637    -0.215    25.695     7.528
   102   1 H        0.926     0.030     2.582     2.513
   103   1 H        0.926     0.032     2.564     2.504
   104   1 H        0.926     0.032     2.562     2.503
   105   1 H        0.926     0.030     2.582     2.513
   106   1 H        0.926     0.050     2.322     2.383
   107   1 H        0.926     0.030     2.582     2.513
   108   1 H        0.926     0.032     2.563     2.503
   109   1 H        0.926     0.032     2.561     2.502
   110   1 H        0.926     0.030     2.582     2.513
   111   1 H        0.926     0.050     2.323     2.383

Wiberg/Mayer (AO) data.
largest (>0.10) Wiberg bond orders for each atom

     #   Z sym  total        # sym  WBO       # sym  WBO       # sym  WBO
 ---------------------------------------------------------------------------
     1  26 Fe   3.281 --    22 N    0.659    16 N    0.659    10 N    0.657
                            25 N    0.657
     2   6 C    3.957 --     3 C    1.644    24 C    1.171    26 H    0.972
     3   6 C    3.963 --     2 C    1.644     4 C    1.182    27 H    0.968
     4   6 C    3.928 --     5 C    1.262    25 N    1.256     3 C    1.182
     5   6 C    3.951 --     4 C    1.262     6 C    1.262    73 C    1.169
     6   6 C    3.928 --     5 C    1.262    10 N    1.256     7 C    1.182
     7   6 C    3.963 --     8 C    1.644     6 C    1.182    28 H    0.968
     8   6 C    3.957 --     7 C    1.644     9 C    1.171    29 H    0.972
     9   6 C    3.938 --    11 C    1.361    10 N    1.217     8 C    1.171
    10   7 N    3.416 --     6 C    1.256     9 C    1.217     1 Fe   0.657
    11   6 C    3.943 --    12 C    1.361     9 C    1.361    30 H    0.963
    12   6 C    3.942 --    11 C    1.361    16 N    1.226    13 C    1.163
    13   6 C    3.962 --    14 C    1.660    12 C    1.163    31 H    0.972
    14   6 C    3.960 --    13 C    1.660    15 C    1.164    32 H    0.972
    15   6 C    3.944 --    17 C    1.358    16 N    1.239    14 C    1.164
    16   7 N    3.412 --    15 C    1.239    12 C    1.226     1 Fe   0.659
    17   6 C    3.940 --    18 C    1.358    15 C    1.358    33 H    0.965
    18   6 C    3.944 --    17 C    1.358    22 N    1.239    19 C    1.164
    19   6 C    3.960 --    20 C    1.660    18 C    1.164    34 H    0.972
    20   6 C    3.962 --    19 C    1.660    21 C    1.163    35 H    0.972
    21   6 C    3.942 --    23 C    1.362    22 N    1.226    20 C    1.163
    22   7 N    3.412 --    18 C    1.239    21 C    1.226     1 Fe   0.659
    23   6 C    3.943 --    21 C    1.362    24 C    1.360    36 H    0.963
    24   6 C    3.938 --    23 C    1.360    25 N    1.218     2 C    1.171
    25   7 N    3.416 --     4 C    1.256    24 C    1.218     1 Fe   0.657
    26   1 H    0.998 --     2 C    0.972
    27   1 H    0.998 --     3 C    0.968
    28   1 H    0.998 --     7 C    0.968
    29   1 H    0.998 --     8 C    0.972
    30   1 H    0.996 --    11 C    0.963
    31   1 H    0.998 --    13 C    0.972
    32   1 H    0.998 --    14 C    0.972
    33   1 H    0.997 --    17 C    0.965
    34   1 H    0.998 --    19 C    0.972
    35   1 H    0.998 --    20 C    0.972
    36   1 H    0.996 --    23 C    0.963
    37  26 Fe   3.279 --    52 N    0.660    58 N    0.659    46 N    0.657
                            61 N    0.657
    38   6 C    3.957 --    39 C    1.645    60 C    1.171    62 H    0.972
    39   6 C    3.963 --    38 C    1.645    40 C    1.181    63 H    0.969
    40   6 C    3.928 --    41 C    1.263    61 N    1.256    39 C    1.181
    41   6 C    3.951 --    40 C    1.263    42 C    1.262    76 C    1.168
    42   6 C    3.928 --    41 C    1.262    46 N    1.256    43 C    1.181
    43   6 C    3.963 --    44 C    1.645    42 C    1.181    64 H    0.969
    44   6 C    3.957 --    43 C    1.645    45 C    1.171    65 H    0.972
    45   6 C    3.938 --    47 C    1.361    46 N    1.218    44 C    1.171
    46   7 N    3.416 --    42 C    1.256    45 C    1.218    37 Fe   0.657
    47   6 C    3.943 --    48 C    1.361    45 C    1.361    66 H    0.963
    48   6 C    3.942 --    47 C    1.361    52 N    1.227    49 C    1.163
    49   6 C    3.962 --    50 C    1.660    48 C    1.163    67 H    0.972
    50   6 C    3.960 --    49 C    1.660    51 C    1.164    68 H    0.972
    51   6 C    3.944 --    53 C    1.358    52 N    1.239    50 C    1.164
    52   7 N    3.412 --    51 C    1.239    48 C    1.227    37 Fe   0.660
    53   6 C    3.940 --    51 C    1.358    54 C    1.358    69 H    0.965
    54   6 C    3.944 --    53 C    1.358    58 N    1.239    55 C    1.164
    55   6 C    3.960 --    56 C    1.660    54 C    1.164    70 H    0.972
    56   6 C    3.962 --    55 C    1.660    57 C    1.163    71 H    0.972
    57   6 C    3.942 --    59 C    1.361    58 N    1.227    56 C    1.163
    58   7 N    3.412 --    54 C    1.239    57 C    1.227    37 Fe   0.659
    59   6 C    3.943 --    57 C    1.361    60 C    1.361    72 H    0.963
    60   6 C    3.938 --    59 C    1.361    61 N    1.218    38 C    1.171
    61   7 N    3.416 --    40 C    1.256    60 C    1.218    37 Fe   0.657
    62   1 H    0.998 --    38 C    0.972
    63   1 H    0.998 --    39 C    0.969
    64   1 H    0.998 --    43 C    0.969
    65   1 H    0.998 --    44 C    0.972
    66   1 H    0.996 --    47 C    0.963
    67   1 H    0.998 --    49 C    0.972
    68   1 H    0.998 --    50 C    0.972
    69   1 H    0.997 --    53 C    0.965
    70   1 H    0.998 --    55 C    0.972
    71   1 H    0.998 --    56 C    0.972
    72   1 H    0.996 --    59 C    0.963
    73   6 C    3.927 --    74 C    2.582     5 C    1.169
    74   6 C    3.930 --    73 C    2.582    81 C    1.171
    75   6 C    3.930 --    76 C    2.583    93 C    1.170
    76   6 C    3.927 --    75 C    2.583    41 C    1.168
    77  26 Fe   3.250 --   101 N    0.653    86 N    0.653    92 N    0.652
                            98 N    0.652
    78   6 C    3.958 --    79 C    1.644   100 C    1.172   102 H    0.972
    79   6 C    3.961 --    78 C    1.644    80 C    1.182   103 H    0.968
    80   6 C    3.928 --    81 C    1.260   101 N    1.258    79 C    1.182
    81   6 C    3.943 --    80 C    1.260    82 C    1.260    74 C    1.171
    82   6 C    3.928 --    81 C    1.260    86 N    1.259    83 C    1.182
    83   6 C    3.961 --    84 C    1.644    82 C    1.182   104 H    0.968
    84   6 C    3.958 --    83 C    1.644    85 C    1.172   105 H    0.972
    85   6 C    3.937 --    87 C    1.361    86 N    1.216    84 C    1.172
    86   7 N    3.408 --    82 C    1.259    85 C    1.216    77 Fe   0.653
    87   6 C    3.937 --    88 C    1.361    85 C    1.361   106 H    0.963
    88   6 C    3.937 --    87 C    1.361    92 N    1.216    89 C    1.171
    89   6 C    3.958 --    90 C    1.644    88 C    1.171   107 H    0.972
    90   6 C    3.961 --    89 C    1.644    91 C    1.181   108 H    0.969
    91   6 C    3.929 --    93 C    1.260    92 N    1.259    90 C    1.181
    92   7 N    3.408 --    91 C    1.259    88 C    1.216    77 Fe   0.652
    93   6 C    3.943 --    91 C    1.260    94 C    1.260    75 C    1.170
    94   6 C    3.929 --    93 C    1.260    98 N    1.259    95 C    1.181
    95   6 C    3.961 --    96 C    1.644    94 C    1.181   109 H    0.969
    96   6 C    3.958 --    95 C    1.644    97 C    1.171   110 H    0.972
    97   6 C    3.937 --    99 C    1.361    98 N    1.216    96 C    1.171
    98   7 N    3.408 --    94 C    1.259    97 C    1.216    77 Fe   0.652
    99   6 C    3.937 --    97 C    1.361   100 C    1.361   111 H    0.963
   100   6 C    3.937 --    99 C    1.361   101 N    1.216    78 C    1.172
   101   7 N    3.408 --    80 C    1.258   100 C    1.216    77 Fe   0.653
   102   1 H    0.998 --    78 C    0.972
   103   1 H    0.998 --    79 C    0.968
   104   1 H    0.998 --    83 C    0.968
   105   1 H    0.998 --    84 C    0.972
   106   1 H    0.996 --    87 C    0.963
   107   1 H    0.998 --    89 C    0.972
   108   1 H    0.998 --    90 C    0.969
   109   1 H    0.998 --    95 C    0.969
   110   1 H    0.998 --    96 C    0.972
   111   1 H    0.996 --    99 C    0.963
 ---------------------------------------------------------------------------

molecular dipole:
                 x           y           z       tot (Debye)
 q only:        0.000      -0.001       0.001
   full:       -0.000      -0.002       0.001       0.005

 projected vibrational frequencies (cm⁻¹)
eigval :       -0.00    -0.00    -0.00     0.00     0.00     0.00
eigval :        3.25     6.61     7.81    11.44    12.12    15.43
eigval :       23.96    30.25    31.24    34.87    39.52    41.52
eigval :       50.24    56.69    65.07    66.14    79.49    93.17
eigval :       94.38   100.23   109.12   114.48   125.64   127.96
eigval :      130.29   130.65   141.59   179.01   184.88   185.05
eigval :      185.87   205.67   208.72   209.15   209.67   209.87
eigval :      218.39   224.71   224.84   224.89   225.48   226.31
eigval :      226.62   232.66   247.53   248.49   249.37   250.98
eigval :      255.17   256.10   256.20   261.15   271.52   275.80
eigval :      282.49   283.81   304.67   310.56   320.91   321.60
eigval :      324.12   327.09   331.28   332.93   333.39   353.79
eigval :      360.68   361.59   363.47   364.16   364.52   367.10
eigval :      368.26   388.14   388.40   394.47   394.63   394.74
eigval :      407.92   408.39   427.05   429.25   429.29   431.39
eigval :      432.15   435.46   453.90   454.35   459.09   459.23
eigval :      463.22   500.63   502.59   517.39   519.77   603.94
eigval :      614.72   620.40   621.38   621.63   622.40   623.36
eigval :      623.37   625.16   625.22   629.28   635.24   638.70
eigval :      638.75   639.99   640.13   645.48   652.71   653.39
eigval :      653.48   662.76   662.79   669.95   670.07   673.05
eigval :      673.77   719.55   719.70   721.10   721.27   750.65
eigval :      752.88   755.54   756.17   759.42   765.53   767.64
eigval :      769.78   776.97   777.09   780.96   780.99   791.31
eigval :      792.85   797.64   797.73   800.98   802.85   803.94
eigval :      804.16   804.94   805.43   809.32   809.78   814.81
eigval :      815.22   816.12   816.77   825.91   826.02   835.29
eigval :      835.58   835.71   836.94   837.05   837.86   839.21
eigval :      840.57   841.02   842.05   842.23   843.14   843.35
eigval :      843.52   843.98   844.59   844.81   845.90   886.29
eigval :      886.41   955.45   957.73   982.92   983.10   987.64
eigval :      987.81   990.81   993.55  1013.30  1014.22  1016.88
eigval :     1017.04  1019.43  1022.58  1022.83  1026.30  1028.68
eigval :     1033.29  1036.72  1038.98  1039.02  1039.47  1057.38
eigval :     1061.33  1062.99  1064.31  1067.07  1067.43  1069.58
eigval :     1070.06  1071.74  1072.58  1072.85  1073.23  1095.57
eigval :     1103.29  1140.51  1142.71  1142.71  1149.54  1168.49
eigval :     1169.26  1170.46  1176.62  1176.95  1187.73  1193.89
eigval :     1207.14  1221.72  1221.97  1252.54  1253.04  1254.46
eigval :     1267.02  1282.97  1283.19  1298.29  1299.83  1302.06
eigval :     1302.31  1305.27  1311.78  1312.88  1313.92  1314.36
eigval :     1317.50  1319.46  1322.54  1322.83  1328.41  1333.47
eigval :     1333.74  1334.60  1341.13  1347.65  1351.21  1356.28
eigval :     1356.52  1357.40  1360.84  1373.18  1376.24  1453.15
eigval :     1458.86  1459.07  1464.52  1465.88  1483.33  1483.66
eigval :     1487.42  1487.51  1488.22  1493.00  1493.24  1497.62
eigval :     1504.69  1515.49  1520.66  1523.29  1523.95  1525.42
eigval :     1526.47  1534.90  1540.16  1540.50  1540.92  1549.45
eigval :     1549.65  1555.23  1555.78  1569.98  1570.17  1583.58
eigval :     1584.09  1585.39  1600.15  1605.36  1605.50  2265.35
eigval :     2268.68  3077.57  3077.85  3078.15  3078.23  3078.29
eigval :     3078.35  3096.68  3096.83  3146.23  3146.31  3146.56
eigval :     3146.60  3150.89  3151.09  3151.12  3151.24  3151.37
eigval :     3151.57  3151.65  3151.81  3160.39  3160.43  3160.83
eigval :     3161.10  3167.63  3168.19  3168.82  3168.92  3169.22
eigval :     3169.34  3170.04  3170.47

   temp. (K)  partition function   enthalpy   heat capacity  entropy
                                   cal/mol     cal/K/mol   cal/K/mol   J/K/mol
 298.15  VIB  0.128E+30            36906.672    244.233    228.555
         ROT  0.553E+09              888.752      2.981     42.987
         INT  0.708E+38            37795.424    247.214    271.542
         TR   0.371E+29             1481.254      4.968     46.942
         TOT                       39276.6782   252.1825   318.4843  1332.5381

       T/K    H(0)-H(T)+PV         H(T)/Eh          T*S/Eh         G(T)/Eh
   ------------------------------------------------------------------------
    298.15    0.625914E-01    0.836965E+00    0.151322E+00    0.685643E+00
   ------------------------------------------------------------------------

         :::::::::::::::::::::::::::::::::::::::::::::::::::::
         ::                  THERMODYNAMIC                  ::
         :::::::::::::::::::::::::::::::::::::::::::::::::::::
         :: total free energy        -197.314115991801 Eh   ::
         ::.................................................::
         :: total energy             -197.999758699656 Eh   ::
         :: zero point energy           0.774373482028 Eh   ::
         :: G(RRHO) w/o ZPVE           -0.088730774174 Eh   ::
         :: G(RRHO) contrib.            0.685642707854 Eh   ::
         :::::::::::::::::::::::::::::::::::::::::::::::::::::

           -------------------------------------------------
          | TOTAL ENERGY             -197.999758699656 Eh   |
          | TOTAL ENTHALPY           -197.162793846785 Eh   |
          | TOTAL FREE ENERGY        -197.314115991801 Eh   |
          | GRADIENT NORM               0.000573190277 Eh/α |
          | HOMO-LUMO GAP               0.242553460776 eV   |
           -------------------------------------------------

 * finished run on 2021/11/19 at 11:00:32.424
