   * xtb version 6.4.1 (bd6e46d) compiled by 'conda@4901f00b25ba' on 2021-06-10
          program call               : /home/jeff/miniconda3/bin/xtb input_structure_1.xyz --gfn 2 --ohess normal --parallel 1 --etemp 300 --chrg 0 --uhf 0 -I det_control.in
          number of atoms            :                   111
          number of electrons        :                   378
          charge                     :                     0
          spin                       :                   0.0

   ID    Z sym.   atoms
    1   28 Ni     1, 37, 77
    2    6 C      2-9, 11-15, 17-21, 23, 24, 38-45, 47-51, 53-57, 59, 60,
                  73-76, 78-85, 87-91, 93-97, 99, 100
    3    7 N      10, 16, 22, 25, 46, 52, 58, 61, 86, 92, 98, 101
    4    1 H      26-36, 62-72, 102-111

          :  Hamiltonian                  GFN2-xTB          :
 * total energy  :  -202.0931344 Eh     change       -0.1708977E-07 Eh
 * total energy  :  -202.2958724 Eh     change       -0.2027380E+00 Eh
 * total energy  :  -202.4218279 Eh     change       -0.1259555E+00 Eh
 * total energy  :  -202.4950686 Eh     change       -0.7324070E-01 Eh
 * total energy  :  -202.5520385 Eh     change       -0.5696987E-01 Eh
 * total energy  :  -202.6034400 Eh     change       -0.5140150E-01 Eh
 * total energy  :  -202.6549160 Eh     change       -0.5147603E-01 Eh
 * total energy  :  -202.7071645 Eh     change       -0.5224849E-01 Eh
 * total energy  :  -202.7518711 Eh     change       -0.4470665E-01 Eh
 * total energy  :  -202.7813001 Eh     change       -0.2942897E-01 Eh
 * total energy  :  -203.0790815 Eh     change       -0.4122542E-04 Eh
 * total energy  :  -203.0790879 Eh     change       -0.6453779E-05 Eh
 * total energy  :  -203.0790966 Eh     change       -0.8678541E-05 Eh
 * total energy  :  -203.0791099 Eh     change       -0.1329680E-04 Eh
 * total energy  :  -203.0791206 Eh     change       -0.1073880E-04 Eh
 * total energy  :  -203.0791276 Eh     change       -0.7004593E-05 Eh
 * total energy  :  -203.0791339 Eh     change       -0.6233863E-05 Eh
 * total energy  :  -203.0791404 Eh     change       -0.6534421E-05 Eh
 * total energy  :  -203.0791450 Eh     change       -0.4552729E-05 Eh
   *** GEOMETRY OPTIMIZATION CONVERGED AFTER 101 ITERATIONS ***

 final structure:
================
111
 xtb: 6.4.1 (bd6e46d)
Ni       17.05653839639034    0.00243029346118    0.01716222801985
C        19.55419638105131   -3.22826077735855    1.09609266275692
C        20.50419994486952   -2.29797009848378    0.85057957169561
C        19.81770347679464   -1.11806901798947    0.41804544702736
C        20.48219159619246    0.05274846889668    0.04176282444171
C        19.78842422385121    1.21736296549518   -0.29721487288197
C        20.44532130834761    2.43999908872996   -0.64923648554291
C        19.47380749695962    3.36530093547022   -0.81647413161098
C        18.22838202587568    2.69607005136141   -0.58766120894576
N        18.43546070960249    1.37729329084672   -0.28386692749282
C        17.00598551653296    3.33067460481856   -0.67195331755298
C        15.80141312286659    2.67230038388844   -0.53589560499417
C        14.52981766897537    3.32096845999766   -0.68068198924622
C        13.59045301497324    2.35706182243910   -0.56855433762075
C        14.29154749692260    1.12535872897351   -0.34288412355414
N        15.64063397940138    1.33382358030518   -0.31535832955378
C        13.65514586841153   -0.08929177096097   -0.18674723548557
C        14.33084265815182   -1.26085806902578    0.08838915830156
C        13.67053677167517   -2.51748980622190    0.29860110998634
C        14.63271615717650   -3.41067265914021    0.61595016144211
C        15.87779279190694   -2.69848308053074    0.58851374576940
N        15.68020224190900   -1.38884829732949    0.25420991877180
C        17.09170943283805   -3.28396845562789    0.88336478841596
C        18.29389057460728   -2.61092012359910    0.81017919898744
N        18.46947352859065   -1.31141540216630    0.41526756783745
H        19.67306728509618   -4.23908010491891    1.43482885311239
H        21.56797778184297   -2.37438336304066    0.96094758187248
H        21.50661294338910    2.54936598231705   -0.75431450583045
H        19.56824315069016    4.40153631499873   -1.07707640766348
H        16.99257559634084    4.38980002303452   -0.87919811729269
H        14.40159713358948    4.37208193182651   -0.85326379450278
H        12.52275376012552    2.44486543277469   -0.62603232281862
H        12.57923765124245   -0.12089406540247   -0.26398495008465
H        12.61137835291923   -2.66687469979854    0.21579351101779
H        14.53596113873054   -4.45363550886007    0.84820837500883
H        17.10430907761458   -4.32382575954638    1.17227696497675
Ni       38.79595230145281    0.02824357178921    0.00388667778289
C        36.30504898015224    3.22841916215240    1.19909987446559
C        35.35202896539317    2.31934602029596    0.89376445099676
C        36.03736456029183    1.15162665105094    0.42698792559404
C        35.36951138139212    0.00284064578099   -0.00476623489318
C        36.05620760294649   -1.14265268420029   -0.41429079323851
C        35.39067551329799   -2.33142606150258   -0.85569292221752
C        36.35768469920770   -3.23985282761407   -1.11538604363424
C        37.60766743971126   -2.59546488927039   -0.84352645306915
N        37.40834372381067   -1.30713375326329   -0.42505394468336
C        38.82656014752670   -3.22459365947359   -0.99137388445491
C        40.03449075480882   -2.59380734068887   -0.77711861015327
C        41.30162672303213   -3.24180451142580   -0.95853564657821
C        42.24907403944981   -2.31166593922166   -0.71131955550209
C        41.55671678128222   -1.10094711358633   -0.37354388469342
N        40.20469093155930   -1.28887449342545   -0.41075277161467
C        42.20429242345974    0.07849963901697   -0.06708856885364
C        41.53585555575299    1.23307935530093    0.28575760620356
C        42.20660405515707    2.45509419357938    0.62647693908395
C        41.24485991764419    3.34404184735986    0.95629768831124
C        39.99049587194388    2.66309081416857    0.81067440681662
N        40.18215577036401    1.37647220691328    0.39371946755454
C        38.77398608014382    3.25516322346925    1.07994342378435
C        37.56576695221287    2.60887013588040    0.91951834142438
N        37.38705379940466    1.33171459680305    0.45898739135789
H        36.18823114381075    4.22527893478106    1.57756888507538
H        34.28651740837331    2.40313838311765    0.98059288384334
H        34.32751508163998   -2.42974220844340   -0.95462236287974
H        36.25731263671766   -4.24982352905900   -1.46251811770822
H        38.83456211339371   -4.25794951270664   -1.30277833728967
H        41.42168769766584   -4.26954476146950   -1.24205136618647
H        43.31687107565979   -2.40951715421303   -0.74607326519608
H        43.28290684989510    0.09623862950040   -0.09564894809115
H        43.27124531405717    2.58653637660241    0.61115953607820
H        41.34743844306075    4.36488545323960    1.27000149636692
H        38.76558055125996    4.27646041244065    1.42889349386803
C        21.88414069690064    0.06178249695812    0.02361580057189
C        23.09655537609435    0.05689370099712    0.00533742383127
C        32.75528553614082   -0.00760969639860   -0.02818981760407
C        33.96745217154973   -0.00202868858976   -0.01782162599192
Ni       27.92603491594299    0.02410272418236   -0.04822818797366
C        25.44402747938240   -3.37859565032785   -0.31296135398710
C        24.49015899562010   -2.41992446852069   -0.31210495417605
C        25.16885477571405   -1.16945299656804   -0.15116027403949
C        24.49802054481020    0.04943168265490   -0.01430877784227
C        25.18920195263240    1.25899786905206    0.09949255115380
C        24.53235422283151    2.52103102349764    0.25944983237693
C        25.49870093653156    3.46624976375413    0.22109567007500
C        26.74028707293658    2.77372939049075    0.05062747075956
N        26.53813668741238    1.42022238371545    0.00506792845824
C        27.95090925350103    3.41756742971253   -0.10092692432299
C        29.15360195244422    2.75289798021128   -0.22096326616560
C        30.40814054829060    3.42213516138139   -0.39049655575928
C        31.36200360491054    2.46364004717657   -0.37343606368378
C        30.68303610550538    1.21636993043087   -0.18907057748053
N        29.33531444370158    1.39893718031643   -0.12637407683621
C        31.35378275032623   -0.00062207563277   -0.03963925063535
C        30.66510066279998   -1.20894874696769    0.09580608726115
C        31.32520119481563   -2.46792256459375    0.26849371209564
C        30.35852607387810   -3.41363086293500    0.26036203113645
C        29.11445615659654   -2.72449723052432    0.09314355389903
N        29.31545049524445   -1.37210592799292    0.02000608765742
C        27.90183380171781   -3.36973059798614   -0.03412213019072
C        26.69894959858989   -2.70620831663570   -0.15999278111024
N        26.51710898811058   -1.35068547218806   -0.09037769762206
H        25.33090386351475   -4.44124551013195   -0.40545855876864
H        23.42833519267203   -2.52386921200668   -0.41885150555296
H        23.47515051944867    2.64102745613857    0.39094149926286
H        25.40250716729711    4.53167622464156    0.29972199474398
H        27.95788444556042    4.49667194669405   -0.12092379583775
H        30.52135139670436    4.48282526470249   -0.50315554712220
H        32.42388001091850    2.56515991391099   -0.48301813824159
H        32.38465183934835   -2.58538514772714    0.38544766735066
H        30.45631976915893   -4.47744690817599    0.35695836840197
H        27.89315525771225   -4.44901861002355   -0.03199060255180

          :  Hamiltonian                  GFN2-xTB          :
         :: gradient norm              0.000534909418 Eh/a0 ::
         :: HOMO-LUMO gap              1.146783389011 eV    ::
         :: SCC energy              -206.492630572554 Eh    ::
         :: -> dispersion             -0.186504402329 Eh    ::
         :: repulsion energy           3.416276985161 Eh    ::

    * Orbital Energies and Occupations

         #    Occupation            Energy/Eh            Energy/eV
      -------------------------------------------------------------
         1        2.0000           -0.6761677             -18.3995
       ...           ...                  ...                  ...
       177        2.0000           -0.3709097             -10.0930
       178        2.0000           -0.3708739             -10.0920
       179        2.0000           -0.3676219             -10.0035
       180        2.0000           -0.3675873             -10.0026
       181        2.0000           -0.3665696              -9.9749
       182        2.0000           -0.3665609              -9.9746
       183        2.0000           -0.3665429              -9.9741
       184        2.0000           -0.3665394              -9.9740
       185        2.0000           -0.3660488              -9.9607
       186        2.0000           -0.3617983              -9.8450
       187        2.0000           -0.3606486              -9.8137
       188        2.0000           -0.3606311              -9.8133
       189        2.0000           -0.3554636              -9.6727 (HOMO)
       190                         -0.3133201              -8.5259 (LUMO)
       191                         -0.3016955              -8.2096
       192                         -0.2996747              -8.1546
       193                         -0.2988237              -8.1314
       194                         -0.2988211              -8.1313
       195                         -0.2982257              -8.1151
       196                         -0.2976486              -8.0994
       197                         -0.2971807              -8.0867
       198                         -0.2905722              -7.9069
       199                         -0.2670808              -7.2676
       200                         -0.2583194              -7.0292
       ...                                ...                  ...
       363                          1.4127548              38.4430
      -------------------------------------------------------------
                  HL-Gap            0.0421435 Eh            1.1468 eV

     #   Z          covCN         q      C6AA      α(0)
     1  28 Ni       3.028    -0.293   189.412    28.397
     2   6 C        3.023    -0.052    29.271     8.875
     3   6 C        3.022    -0.051    29.237     8.869
     4   6 C        3.182     0.073    25.949     8.314
     5   6 C        2.956     0.027    27.407     8.587
     6   6 C        3.182     0.073    25.950     8.315
     7   6 C        3.022    -0.050    29.226     8.868
     8   6 C        3.023    -0.052    29.273     8.875
     9   6 C        3.170     0.073    26.012     8.332
    10   7 N        2.627    -0.047    22.164     6.992
    11   6 C        2.904    -0.042    29.032     8.835
    12   6 C        3.167     0.074    26.002     8.332
    13   6 C        3.020    -0.051    29.248     8.871
    14   6 C        3.021    -0.051    29.250     8.871
    15   6 C        3.167     0.075    25.997     8.331
    16   7 N        2.626    -0.047    22.156     6.991
    17   6 C        2.904    -0.043    29.073     8.841
    18   6 C        3.167     0.075    25.996     8.331
    19   6 C        3.021    -0.051    29.250     8.871
    20   6 C        3.020    -0.051    29.249     8.871
    21   6 C        3.167     0.074    26.004     8.332
    22   7 N        2.627    -0.047    22.154     6.990
    23   6 C        2.904    -0.041    29.030     8.835
    24   6 C        3.170     0.073    26.015     8.333
    25   7 N        2.627    -0.047    22.160     6.991
    26   1 H        0.926     0.035     2.511     2.478
    27   1 H        0.926     0.037     2.490     2.467
    28   1 H        0.926     0.036     2.496     2.471
    29   1 H        0.926     0.035     2.511     2.478
    30   1 H        0.926     0.049     2.332     2.388
    31   1 H        0.926     0.036     2.506     2.476
    32   1 H        0.926     0.036     2.507     2.476
    33   1 H        0.926     0.048     2.340     2.392
    34   1 H        0.926     0.036     2.507     2.476
    35   1 H        0.926     0.036     2.506     2.476
    36   1 H        0.926     0.049     2.332     2.388
    37  28 Ni       3.023    -0.293   189.404    28.397
    38   6 C        3.023    -0.052    29.271     8.875
    39   6 C        3.022    -0.051    29.235     8.869
    40   6 C        3.183     0.073    25.941     8.312
    41   6 C        2.956     0.027    27.409     8.587
    42   6 C        3.183     0.073    25.942     8.313
    43   6 C        3.022    -0.051    29.230     8.868
    44   6 C        3.023    -0.052    29.271     8.875
    45   6 C        3.171     0.073    26.009     8.331
    46   7 N        2.625    -0.047    22.169     6.993
    47   6 C        2.904    -0.042    29.033     8.835
    48   6 C        3.168     0.074    26.000     8.332
    49   6 C        3.020    -0.051    29.248     8.871
    50   6 C        3.021    -0.051    29.250     8.871
    51   6 C        3.168     0.075    25.994     8.331
    52   7 N        2.626    -0.047    22.154     6.990
    53   6 C        2.904    -0.043    29.074     8.841
    54   6 C        3.168     0.075    25.994     8.331
    55   6 C        3.021    -0.051    29.250     8.871
    56   6 C        3.020    -0.051    29.249     8.871
    57   6 C        3.168     0.074    26.001     8.332
    58   7 N        2.626    -0.047    22.153     6.990
    59   6 C        2.904    -0.042    29.033     8.835
    60   6 C        3.171     0.073    26.010     8.332
    61   7 N        2.626    -0.047    22.167     6.992
    62   1 H        0.926     0.035     2.511     2.478
    63   1 H        0.926     0.037     2.489     2.467
    64   1 H        0.926     0.037     2.493     2.469
    65   1 H        0.926     0.035     2.511     2.478
    66   1 H        0.926     0.049     2.332     2.388
    67   1 H        0.926     0.036     2.506     2.476
    68   1 H        0.926     0.036     2.507     2.476
    69   1 H        0.926     0.048     2.340     2.392
    70   1 H        0.926     0.036     2.507     2.476
    71   1 H        0.926     0.036     2.506     2.476
    72   1 H        0.926     0.049     2.332     2.388
    73   6 C        1.989    -0.029    31.814     9.109
    74   6 C        1.989    -0.029    31.830     9.111
    75   6 C        1.989    -0.029    31.830     9.111
    76   6 C        1.990    -0.029    31.812     9.109
    77  28 Ni       3.030    -0.289   189.319    28.390
    78   6 C        3.023    -0.052    29.268     8.874
    79   6 C        3.022    -0.051    29.232     8.869
    80   6 C        3.183     0.073    25.939     8.313
    81   6 C        2.955     0.027    27.404     8.586
    82   6 C        3.183     0.073    25.941     8.313
    83   6 C        3.022    -0.050    29.224     8.867
    84   6 C        3.023    -0.052    29.268     8.874
    85   6 C        3.171     0.073    26.011     8.331
    86   7 N        2.628    -0.049    22.192     6.996
    87   6 C        2.904    -0.040    28.989     8.828
    88   6 C        3.171     0.073    26.010     8.331
    89   6 C        3.023    -0.052    29.266     8.874
    90   6 C        3.022    -0.051    29.231     8.869
    91   6 C        3.184     0.073    25.934     8.311
    92   7 N        2.627    -0.049    22.197     6.997
    93   6 C        2.956     0.027    27.405     8.586
    94   6 C        3.183     0.073    25.936     8.312
    95   6 C        3.022    -0.050    29.225     8.868
    96   6 C        3.023    -0.052    29.267     8.874
    97   6 C        3.171     0.073    26.011     8.331
    98   7 N        2.627    -0.049    22.200     6.998
    99   6 C        2.904    -0.040    28.989     8.828
   100   6 C        3.171     0.073    26.013     8.332
   101   7 N        2.628    -0.049    22.190     6.996
   102   1 H        0.926     0.035     2.510     2.478
   103   1 H        0.926     0.037     2.489     2.467
   104   1 H        0.926     0.036     2.498     2.472
   105   1 H        0.926     0.035     2.510     2.478
   106   1 H        0.926     0.050     2.324     2.384
   107   1 H        0.926     0.035     2.510     2.478
   108   1 H        0.926     0.037     2.490     2.468
   109   1 H        0.926     0.037     2.495     2.470
   110   1 H        0.926     0.035     2.511     2.478
   111   1 H        0.926     0.050     2.325     2.384

Wiberg/Mayer (AO) data.
largest (>0.10) Wiberg bond orders for each atom

     #   Z sym  total        # sym  WBO       # sym  WBO       # sym  WBO
 ---------------------------------------------------------------------------
     1  28 Ni   3.479 --    25 N    0.753    10 N    0.753    22 N    0.751
                            16 N    0.751
     2   6 C    3.953 --     3 C    1.646    24 C    1.169    26 H    0.972
     3   6 C    3.958 --     2 C    1.646     4 C    1.178    27 H    0.967
     4   6 C    3.922 --    25 N    1.261     5 C    1.257     3 C    1.178
     5   6 C    3.945 --     6 C    1.259     4 C    1.257    73 C    1.166
     6   6 C    3.922 --    10 N    1.259     5 C    1.259     7 C    1.178
     7   6 C    3.958 --     8 C    1.646     6 C    1.178    28 H    0.967
     8   6 C    3.953 --     7 C    1.646     9 C    1.169    29 H    0.972
     9   6 C    3.931 --    11 C    1.354    10 N    1.228     8 C    1.169
    10   7 N    3.577 --     6 C    1.259     9 C    1.228     1 Ni   0.753
    11   6 C    3.935 --     9 C    1.354    12 C    1.354    30 H    0.964
    12   6 C    3.935 --    11 C    1.354    16 N    1.239    13 C    1.161
    13   6 C    3.957 --    14 C    1.661    12 C    1.161    31 H    0.972
    14   6 C    3.955 --    13 C    1.661    15 C    1.160    32 H    0.972
    15   6 C    3.937 --    17 C    1.353    16 N    1.242    14 C    1.160
    16   7 N    3.571 --    15 C    1.242    12 C    1.239     1 Ni   0.751
    17   6 C    3.932 --    18 C    1.353    15 C    1.353    33 H    0.964
    18   6 C    3.937 --    17 C    1.353    22 N    1.242    19 C    1.161
    19   6 C    3.955 --    20 C    1.661    18 C    1.161    34 H    0.972
    20   6 C    3.957 --    19 C    1.661    21 C    1.161    35 H    0.972
    21   6 C    3.935 --    23 C    1.353    22 N    1.239    20 C    1.161
    22   7 N    3.572 --    18 C    1.242    21 C    1.239     1 Ni   0.751
    23   6 C    3.936 --    24 C    1.355    21 C    1.353    36 H    0.964
    24   6 C    3.931 --    23 C    1.355    25 N    1.227     2 C    1.169
    25   7 N    3.577 --     4 C    1.261    24 C    1.227     1 Ni   0.753
    26   1 H    0.998 --     2 C    0.972
    27   1 H    0.998 --     3 C    0.967
    28   1 H    0.998 --     7 C    0.967
    29   1 H    0.998 --     8 C    0.972
    30   1 H    0.996 --    11 C    0.964
    31   1 H    0.998 --    13 C    0.972
    32   1 H    0.998 --    14 C    0.972
    33   1 H    0.997 --    17 C    0.964
    34   1 H    0.998 --    19 C    0.972
    35   1 H    0.998 --    20 C    0.972
    36   1 H    0.996 --    23 C    0.964
    37  28 Ni   3.477 --    61 N    0.753    46 N    0.753    58 N    0.752
                            52 N    0.752
    38   6 C    3.953 --    39 C    1.647    60 C    1.169    62 H    0.972
    39   6 C    3.958 --    38 C    1.647    40 C    1.177    63 H    0.968
    40   6 C    3.923 --    61 N    1.260    41 C    1.259    39 C    1.177
    41   6 C    3.945 --    42 C    1.259    40 C    1.259    76 C    1.164
    42   6 C    3.923 --    46 N    1.260    41 C    1.259    43 C    1.177
    43   6 C    3.958 --    44 C    1.647    42 C    1.177    64 H    0.968
    44   6 C    3.953 --    43 C    1.647    45 C    1.169    65 H    0.972
    45   6 C    3.931 --    47 C    1.355    46 N    1.228    44 C    1.169
    46   7 N    3.577 --    42 C    1.260    45 C    1.228    37 Ni   0.753
    47   6 C    3.936 --    45 C    1.355    48 C    1.354    66 H    0.964
    48   6 C    3.935 --    47 C    1.354    52 N    1.239    49 C    1.161
    49   6 C    3.957 --    50 C    1.661    48 C    1.161    67 H    0.972
    50   6 C    3.955 --    49 C    1.661    51 C    1.161    68 H    0.972
    51   6 C    3.937 --    53 C    1.353    52 N    1.242    50 C    1.161
    52   7 N    3.572 --    51 C    1.242    48 C    1.239    37 Ni   0.752
    53   6 C    3.932 --    54 C    1.353    51 C    1.353    69 H    0.964
    54   6 C    3.937 --    53 C    1.353    58 N    1.242    55 C    1.161
    55   6 C    3.955 --    56 C    1.661    54 C    1.161    70 H    0.972
    56   6 C    3.957 --    55 C    1.661    57 C    1.161    71 H    0.972
    57   6 C    3.935 --    59 C    1.353    58 N    1.239    56 C    1.161
    58   7 N    3.572 --    54 C    1.242    57 C    1.239    37 Ni   0.752
    59   6 C    3.936 --    60 C    1.355    57 C    1.353    72 H    0.964
    60   6 C    3.931 --    59 C    1.355    61 N    1.228    38 C    1.169
    61   7 N    3.577 --    40 C    1.260    60 C    1.228    37 Ni   0.753
    62   1 H    0.998 --    38 C    0.972
    63   1 H    0.998 --    39 C    0.968
    64   1 H    0.998 --    43 C    0.968
    65   1 H    0.998 --    44 C    0.972
    66   1 H    0.996 --    47 C    0.964
    67   1 H    0.998 --    49 C    0.972
    68   1 H    0.998 --    50 C    0.972
    69   1 H    0.997 --    53 C    0.964
    70   1 H    0.998 --    55 C    0.972
    71   1 H    0.998 --    56 C    0.972
    72   1 H    0.996 --    59 C    0.964
    73   6 C    3.927 --    74 C    2.583     5 C    1.166
    74   6 C    3.929 --    73 C    2.583    81 C    1.168
    75   6 C    3.929 --    76 C    2.584    93 C    1.166
    76   6 C    3.926 --    75 C    2.584    41 C    1.164
    77  28 Ni   3.471 --   101 N    0.750    86 N    0.750    92 N    0.749
                            98 N    0.749
    78   6 C    3.954 --    79 C    1.645   100 C    1.170   102 H    0.972
    79   6 C    3.956 --    78 C    1.645    80 C    1.178   103 H    0.967
    80   6 C    3.923 --   101 N    1.262    81 C    1.256    79 C    1.178
    81   6 C    3.936 --    82 C    1.256    80 C    1.256    74 C    1.168
    82   6 C    3.923 --    86 N    1.261    81 C    1.256    83 C    1.178
    83   6 C    3.956 --    84 C    1.645    82 C    1.178   104 H    0.967
    84   6 C    3.954 --    83 C    1.645    85 C    1.171   105 H    0.972
    85   6 C    3.929 --    87 C    1.354    86 N    1.226    84 C    1.171
    86   7 N    3.569 --    82 C    1.261    85 C    1.226    77 Ni   0.750
    87   6 C    3.930 --    88 C    1.355    85 C    1.354   106 H    0.963
    88   6 C    3.929 --    87 C    1.355    92 N    1.226    89 C    1.170
    89   6 C    3.954 --    90 C    1.645    88 C    1.170   107 H    0.972
    90   6 C    3.956 --    89 C    1.645    91 C    1.178   108 H    0.968
    91   6 C    3.923 --    92 N    1.262    93 C    1.256    90 C    1.178
    92   7 N    3.568 --    91 C    1.262    88 C    1.226    77 Ni   0.749
    93   6 C    3.935 --    94 C    1.257    91 C    1.256    75 C    1.166
    94   6 C    3.923 --    98 N    1.262    93 C    1.257    95 C    1.178
    95   6 C    3.956 --    96 C    1.645    94 C    1.178   109 H    0.968
    96   6 C    3.954 --    95 C    1.645    97 C    1.170   110 H    0.972
    97   6 C    3.929 --    99 C    1.354    98 N    1.226    96 C    1.170
    98   7 N    3.568 --    94 C    1.262    97 C    1.226    77 Ni   0.749
    99   6 C    3.930 --   100 C    1.354    97 C    1.354   111 H    0.963
   100   6 C    3.929 --    99 C    1.354   101 N    1.226    78 C    1.170
   101   7 N    3.569 --    80 C    1.262   100 C    1.226    77 Ni   0.750
   102   1 H    0.998 --    78 C    0.972
   103   1 H    0.998 --    79 C    0.967
   104   1 H    0.998 --    83 C    0.967
   105   1 H    0.998 --    84 C    0.972
   106   1 H    0.996 --    87 C    0.963
   107   1 H    0.998 --    89 C    0.972
   108   1 H    0.998 --    90 C    0.968
   109   1 H    0.998 --    95 C    0.968
   110   1 H    0.998 --    96 C    0.972
   111   1 H    0.996 --    99 C    0.963
 ---------------------------------------------------------------------------

molecular dipole:
                 x           y           z       tot (Debye)
 q only:        0.002      -0.003       0.001
   full:        0.002      -0.003      -0.004       0.013

 projected vibrational frequencies (cm⁻¹)
eigval :       -0.00    -0.00    -0.00     0.00     0.00     0.00
eigval :       -2.71    -2.57    -2.20     6.65     8.50    12.70
eigval :       20.47    21.33    26.70    27.76    32.22    40.05
eigval :       51.02    58.49    61.77    66.51    74.56    99.38
eigval :      101.32   107.11   109.21   112.55   120.12   123.12
eigval :      129.24   131.08   144.14   176.83   177.16   178.49
eigval :      186.35   210.23   217.02   221.13   226.02   226.84
eigval :      229.05   231.52   232.45   235.99   238.38   238.80
eigval :      240.35   245.85   246.33   247.02   248.95   270.43
eigval :      272.37   272.67   273.61   273.71   274.50   274.84
eigval :      278.62   283.57   306.46   315.72   322.34   323.73
eigval :      327.97   336.84   338.22   343.30   344.21   357.86
eigval :      361.79   366.15   371.88   373.34   384.68   385.13
eigval :      387.74   389.14   389.34   397.38   398.76   402.20
eigval :      402.78   403.64   411.53   423.06   423.34   434.37
eigval :      434.75   437.24   437.67   454.95   462.79   463.01
eigval :      467.88   498.52   500.92   514.48   517.39   602.95
eigval :      609.36   616.16   616.85   617.31   622.50   622.70
eigval :      624.56   626.50   626.51   629.99   636.28   639.78
eigval :      639.93   645.00   645.08   654.93   657.46   658.34
eigval :      658.46   666.30   666.48   671.61   672.02   673.32
eigval :      673.95   722.37   722.47   723.94   724.07   751.57
eigval :      758.71   759.86   763.60   764.77   765.82   768.47
eigval :      769.94   778.81   779.12   781.61   781.70   792.77
eigval :      793.65   800.36   800.54   802.29   803.84   806.54
eigval :      806.63   807.48   808.37   813.00   813.56   819.63
eigval :      820.25   821.16   822.55   828.47   828.92   835.04
eigval :      835.79   836.16   837.28   838.83   839.19   845.36
eigval :      845.73   846.03   846.50   847.95   848.04   848.04
eigval :      848.17   851.50   854.10   855.96   856.65   885.79
eigval :      887.55   955.13   956.78   987.98   988.17  1001.62
eigval :     1001.88  1002.06  1006.04  1017.85  1018.90  1020.36
eigval :     1022.12  1023.04  1027.56  1027.74  1027.79  1035.19
eigval :     1036.80  1036.86  1036.92  1040.39  1042.19  1059.50
eigval :     1062.15  1063.84  1065.49  1068.34  1068.71  1071.22
eigval :     1071.66  1073.69  1074.27  1074.63  1075.35  1092.20
eigval :     1101.31  1132.74  1141.23  1141.25  1143.87  1160.47
eigval :     1162.41  1169.13  1174.13  1174.49  1183.67  1191.95
eigval :     1210.62  1225.61  1225.94  1243.44  1244.12  1246.75
eigval :     1263.84  1282.13  1282.37  1292.49  1301.06  1302.31
eigval :     1304.48  1304.96  1308.10  1316.03  1317.16  1317.59
eigval :     1318.91  1324.45  1329.90  1330.13  1332.82  1332.91
eigval :     1339.63  1340.44  1340.62  1347.57  1348.67  1354.27
eigval :     1356.49  1359.32  1359.42  1370.87  1372.48  1459.73
eigval :     1461.76  1463.50  1466.93  1467.43  1479.22  1482.73
eigval :     1493.40  1498.40  1510.26  1512.72  1514.76  1515.46
eigval :     1516.14  1520.28  1526.03  1528.55  1531.83  1532.85
eigval :     1533.79  1537.65  1541.57  1544.95  1545.70  1553.52
eigval :     1555.75  1561.94  1562.54  1571.53  1572.31  1582.16
eigval :     1582.91  1583.51  1607.44  1615.02  1615.97  2265.99
eigval :     2270.21  3095.47  3095.67  3095.88  3096.02  3096.08
eigval :     3096.20  3097.36  3097.43  3150.34  3150.42  3150.70
eigval :     3150.77  3155.58  3155.83  3155.96  3156.02  3156.06
eigval :     3156.38  3156.44  3156.73  3164.07  3164.18  3164.98
eigval :     3165.13  3170.35  3170.92  3171.54  3171.86  3172.73
eigval :     3172.96  3173.08  3174.49

   temp. (K)  partition function   enthalpy   heat capacity  entropy
                                   cal/mol     cal/K/mol   cal/K/mol   J/K/mol
 298.15  VIB  0.592E+31            36658.136    243.166    230.123
         ROT  0.545E+09              888.752      2.981     42.958
         INT  0.323E+40            37546.888    246.147    273.080
         TR   0.375E+29             1481.254      4.968     46.964
         TOT                       39028.1418   251.1153   320.0445  1339.0664

       T/K    H(0)-H(T)+PV         H(T)/Eh          T*S/Eh         G(T)/Eh
   ------------------------------------------------------------------------
    298.15    0.621953E-01    0.838843E+00    0.152063E+00    0.686780E+00
   ------------------------------------------------------------------------

         :::::::::::::::::::::::::::::::::::::::::::::::::::::
         ::                  THERMODYNAMIC                  ::
         :::::::::::::::::::::::::::::::::::::::::::::::::::::
         :: total free energy        -202.392365392298 Eh   ::
         ::.................................................::
         :: total energy             -203.079144963049 Eh   ::
         :: zero point energy           0.776647756416 Eh   ::
         :: G(RRHO) w/o ZPVE           -0.089868185665 Eh   ::
         :: G(RRHO) contrib.            0.686779570750 Eh   ::
         :::::::::::::::::::::::::::::::::::::::::::::::::::::

           -------------------------------------------------
          | TOTAL ENERGY             -203.079144963049 Eh   |
          | TOTAL ENTHALPY           -202.240301903774 Eh   |
          | TOTAL FREE ENERGY        -202.392365392298 Eh   |
          | GRADIENT NORM               0.000534972151 Eh/α |
          | HOMO-LUMO GAP               1.146783399612 eV   |
           -------------------------------------------------

 * finished run on 2021/11/19 at 11:04:57.230
