   * xtb version 6.4.1 (bd6e46d) compiled by 'conda@4901f00b25ba' on 2021-06-10
          program call               : /home/jeff/miniconda3/bin/xtb input_structure_1.xyz --gfn 2 --ohess normal --parallel 1 --etemp 300 --chrg 0 --uhf 0 -I det_control.in
          number of atoms            :                    76
          number of electrons        :                   256
          charge                     :                     0
          spin                       :                   0.0

   ID    Z sym.   atoms
    1   27 Co     1, 41
    2    6 C      2-9, 11-15, 17-21, 23, 24, 37-40, 42-49, 51-55, 57-61, 63,
                  64
    3    7 N      10, 16, 22, 25, 50, 56, 62, 65
    4    1 H      26-36, 66-76

          :  Hamiltonian                  GFN2-xTB          :
 * total energy  :  -134.5119338 Eh     change       -0.2480931E-08 Eh
 * total energy  :  -135.6836307 Eh     change       -0.1171697E+01 Eh
 * total energy  :  -135.8720774 Eh     change       -0.1884467E+00 Eh
 * total energy  :  -135.9825322 Eh     change       -0.1104548E+00 Eh
 * total energy  :  -136.0499277 Eh     change       -0.6739541E-01 Eh
 * total energy  :  -136.0943316 Eh     change       -0.4440396E-01 Eh
 * total energy  :  -136.1247743 Eh     change       -0.3044272E-01 Eh
 * total energy  :  -136.1454933 Eh     change       -0.2071894E-01 Eh
 * total energy  :  -136.1592456 Eh     change       -0.1375229E-01 Eh
 * total energy  :  -136.1691746 Eh     change       -0.9929020E-02 Eh
 * total energy  :  -136.2180294 Eh     change       -0.7878664E-05 Eh
 * total energy  :  -136.2180361 Eh     change       -0.6695390E-05 Eh
 * total energy  :  -136.2180410 Eh     change       -0.4891697E-05 Eh
 * total energy  :  -136.2180506 Eh     change       -0.9608040E-05 Eh
 * total energy  :  -136.2180586 Eh     change       -0.8026575E-05 Eh
 * total energy  :  -136.2180680 Eh     change       -0.9395673E-05 Eh
 * total energy  :  -136.2180784 Eh     change       -0.1039373E-04 Eh
 * total energy  :  -136.2180857 Eh     change       -0.7247101E-05 Eh
 * total energy  :  -136.2180903 Eh     change       -0.4596623E-05 Eh
   *** GEOMETRY OPTIMIZATION CONVERGED AFTER 52 ITERATIONS ***

 final structure:
================
76
 xtb: 6.4.1 (bd6e46d)
Co        7.94814887807164   -0.05184529267718    0.00339340132459
C        10.42247641106174   -3.47835919234610    0.07511470526277
C        11.38113559196219   -2.52489160317747    0.06245712236887
C        10.69927499221991   -1.26705492409230    0.03522899170490
C        11.37159839354774   -0.04349405873757    0.02641173705026
C        10.69207197430664    1.17633054997126    0.02769818904591
C        11.36746579582323    2.43811908958430    0.04406842649437
C        10.40394617686439    3.38639582963425    0.06987629420070
C         9.15128356179644    2.69387594802073    0.06338664124292
N         9.33876685640990    1.33676634538958    0.03535603586296
C         7.93541020236781    3.34217530048395    0.07781592312493
C         6.72498991072267    2.68502449219910    0.04154996558550
C         5.46357899180850    3.36655148052063    0.02715997948131
C         4.51203911294677    2.41044920884148   -0.03831948631556
C         5.19938462024227    1.15195496803227   -0.05648736419119
N         6.55350213407079    1.32958195976588   -0.00627521311367
C         4.54703847360640   -0.06099172582254   -0.10947293094322
C         5.20641233768341   -1.27119698743574   -0.09566375725399
C         4.52712761385034   -2.53381827399047   -0.12074623184194
C         5.48410740815917   -3.48540974166674   -0.06980507638648
C         6.74074195452991   -2.79682741757865   -0.02032339284199
N         6.56108100287706   -1.44177261504017   -0.03783313804569
C         7.95407141462635   -3.44745660730800    0.03060847058294
C         9.16622437295655   -2.79263374318589    0.04990453565647
N         9.34700695480110   -1.43447512330399    0.02851271961641
H        10.53300672821218   -4.54517172927428    0.09605104724913
H        12.44787242089612   -2.63655662890943    0.07107382297675
H        12.43350110735131    2.55608059293692    0.03865268311312
H        10.50884055225963    4.45362475054050    0.08932934509690
H         7.93253503528809    4.42117705494144    0.10801352972031
H         5.34930885786952    4.43278920542750    0.05993473764375
H         3.44520859771740    2.51945297529876   -0.06953569822816
H         3.46857363120416   -0.06323645098772   -0.15196873268204
H         3.46147302263546   -2.64881336238225   -0.16748743836631
H         5.37653908828370   -4.55281621655785   -0.06718642220223
H         7.95673652658249   -4.52681690657661    0.04576550994694
C        12.76988344460658   -0.03793964155839    0.03435050667353
C        13.98728031400237   -0.03733143420854    0.05623610842187
C        15.32983778904966   -0.02734043036173    0.07654018580726
C        16.54706531998127   -0.02223814824670    0.10756431452515
Co       21.34786271494379    0.05519155739824   -0.01168869697949
C        18.87006239476790    3.42609604476825    0.46611018787934
C        17.91570784947430    2.47560464833810    0.34001481773036
C        18.60329374009558    1.23033558918606    0.18322165108583
C        17.94433365824082   -0.00097344770650    0.13029926879919
C        18.64236709090952   -1.21039739225851    0.18218388488560
C        17.99616161316310   -2.47760682498872    0.33840083969109
C        18.98132020428457   -3.39696488749028    0.45855227616058
C        20.21843016055538   -2.68714110558024    0.33582248437335
N        19.99790609444458   -1.34428799500059    0.17763483122877
C        21.44760170620165   -3.31055036663196    0.29034684777716
C        22.61751346615410   -2.64622344638854   -0.01224944636850
C        23.86474875327252   -3.31269976441306   -0.24909355094324
C        24.74494222675119   -2.35897006126692   -0.62492568693305
C        24.04021661492015   -1.11092792597839   -0.57588038907294
N        22.73733613728581   -1.29916957915465   -0.20962152078953
C        24.64583508824888    0.11095380523316   -0.78315690410068
C        24.00460593664209    1.31074121816985   -0.55493943567417
C        24.67165801698744    2.57989845697284   -0.58220510953926
C        23.75978565674468    3.50197716674894   -0.20273061349351
C        22.53165588458814    2.79505027543819    0.01605335872207
N        22.69448982352074    1.45447869582098   -0.19449406080414
C        21.33881991684655    3.41979961384648    0.31322812595658
C        20.12993857159580    2.75715174893933    0.34673451536545
N        19.95382748336383    1.40817806953753    0.18310670941521
H        18.75295757211857    4.48277139950311    0.60854317438697
H        16.84857310341139    2.58066712502362    0.36526586718583
H        16.93306160977614   -2.61742084615743    0.36738643443958
H        18.89924178390944   -4.45730195124515    0.59808676167280
H        21.48475162238800   -4.38039752962981    0.42888711320936
H        24.01632072169108   -4.37038660554932   -0.15229355649999
H        25.77801505025355   -2.46273764019818   -0.89518617729192
H        25.68674826175747    0.12874794006866   -1.06789548990861
H        25.70347691333837    2.71818547001200   -0.84177454562303
H        23.87799742568314    4.56257875774913   -0.09223102164493
H        21.34068755841109    4.48949429073194    0.45806500833244

          :  Hamiltonian                  GFN2-xTB          :
         :: gradient norm              0.000845569991 Eh/a0 ::
         :: HOMO-LUMO gap              0.004286869356 eV    ::
         :: SCC energy              -138.605435079321 Eh    ::
         :: -> dispersion             -0.118472970829 Eh    ::
         :: repulsion energy           2.388556982298 Eh    ::

    * Orbital Energies and Occupations

         #    Occupation            Energy/Eh            Energy/eV
      -------------------------------------------------------------
         1        2.0000           -0.6687018             -18.1963
       ...           ...                  ...                  ...
       116        2.0000           -0.3981594             -10.8345
       117        2.0000           -0.3889251             -10.5832
       118        2.0000           -0.3706873             -10.0869
       119        2.0000           -0.3683840             -10.0242
       120        2.0000           -0.3680739             -10.0158
       121        2.0000           -0.3560836              -9.6895
       122        1.9126           -0.3469481              -9.4409
       123        1.9008           -0.3468216              -9.4375
       124        1.8910           -0.3467271              -9.4349
       125        1.8740           -0.3465807              -9.4309
       126        1.8244           -0.3462405              -9.4217
       127        1.8166           -0.3461948              -9.4204
       128        1.4254           -0.3448796              -9.3847 (HOMO)
       129        1.3552           -0.3447221              -9.3804 (LUMO)
       130                         -0.3067839              -8.3480
       131                         -0.2959302              -8.0527
       132                         -0.2954804              -8.0404
       133                         -0.2918490              -7.9416
       134                         -0.2628858              -7.1535
       135                         -0.2620009              -7.1294
       136                         -0.2581644              -7.0250
       137                         -0.2540088              -6.9119
       138                         -0.2260897              -6.1522
       139                         -0.2058618              -5.6018
       ...                                ...                  ...
       248                          1.6349392              44.4890
      -------------------------------------------------------------
                  HL-Gap            0.0001575 Eh            0.0043 eV

     #   Z          covCN         q      C6AA      α(0)
     1  27 Co       3.054     0.099   140.949    24.324
     2   6 C        3.025    -0.053    29.293     8.878
     3   6 C        3.022    -0.052    29.254     8.872
     4   6 C        3.195     0.073    25.881     8.294
     5   6 C        2.956     0.017    27.623     8.621
     6   6 C        3.195     0.073    25.883     8.295
     7   6 C        3.022    -0.052    29.254     8.872
     8   6 C        3.024    -0.053    29.295     8.878
     9   6 C        3.181     0.072    25.988     8.322
    10   7 N        2.630    -0.131    23.847     7.253
    11   6 C        2.905    -0.050    29.242     8.867
    12   6 C        3.177     0.073    25.983     8.323
    13   6 C        3.021    -0.052    29.274     8.875
    14   6 C        3.022    -0.052    29.276     8.875
    15   6 C        3.177     0.073    25.978     8.322
    16   7 N        2.631    -0.129    23.813     7.247
    17   6 C        2.905    -0.052    29.284     8.873
    18   6 C        3.177     0.073    25.976     8.322
    19   6 C        3.022    -0.052    29.276     8.875
    20   6 C        3.022    -0.052    29.274     8.875
    21   6 C        3.177     0.073    25.983     8.323
    22   7 N        2.631    -0.129    23.817     7.248
    23   6 C        2.905    -0.050    29.241     8.867
    24   6 C        3.181     0.072    25.987     8.322
    25   7 N        2.629    -0.131    23.852     7.253
    26   1 H        0.926     0.034     2.534     2.489
    27   1 H        0.926     0.036     2.504     2.475
    28   1 H        0.926     0.036     2.504     2.475
    29   1 H        0.926     0.034     2.533     2.489
    30   1 H        0.926     0.049     2.327     2.386
    31   1 H        0.926     0.034     2.526     2.486
    32   1 H        0.926     0.034     2.528     2.486
    33   1 H        0.926     0.049     2.335     2.390
    34   1 H        0.926     0.034     2.528     2.486
    35   1 H        0.926     0.034     2.527     2.486
    36   1 H        0.926     0.049     2.328     2.386
    37   6 C        1.993    -0.021    31.607     9.079
    38   6 C        1.963    -0.010    31.335     9.040
    39   6 C        1.963    -0.009    31.320     9.038
    40   6 C        1.992    -0.022    31.624     9.082
    41  27 Co       3.082     0.100   140.940    24.323
    42   6 C        3.024    -0.053    29.294     8.878
    43   6 C        3.021    -0.052    29.254     8.872
    44   6 C        3.191     0.072    25.914     8.303
    45   6 C        2.956     0.018    27.609     8.618
    46   6 C        3.191     0.072    25.913     8.303
    47   6 C        3.021    -0.051    29.251     8.872
    48   6 C        3.024    -0.053    29.294     8.878
    49   6 C        3.177     0.071    26.014     8.329
    50   7 N        2.637    -0.130    23.838     7.251
    51   6 C        2.904    -0.050    29.229     8.865
    52   6 C        3.173     0.073    26.010     8.330
    53   6 C        3.021    -0.052    29.274     8.875
    54   6 C        3.021    -0.052    29.276     8.875
    55   6 C        3.173     0.073    26.005     8.329
    56   7 N        2.639    -0.129    23.803     7.246
    57   6 C        2.904    -0.051    29.271     8.871
    58   6 C        3.173     0.073    26.005     8.329
    59   6 C        3.021    -0.052    29.276     8.875
    60   6 C        3.021    -0.052    29.274     8.875
    61   6 C        3.173     0.073    26.011     8.330
    62   7 N        2.639    -0.129    23.803     7.246
    63   6 C        2.904    -0.049    29.228     8.865
    64   6 C        3.177     0.071    26.016     8.329
    65   7 N        2.638    -0.130    23.834     7.251
    66   1 H        0.926     0.034     2.530     2.487
    67   1 H        0.926     0.036     2.503     2.474
    68   1 H        0.926     0.036     2.503     2.474
    69   1 H        0.926     0.034     2.531     2.488
    70   1 H        0.926     0.050     2.326     2.385
    71   1 H        0.926     0.034     2.524     2.485
    72   1 H        0.926     0.034     2.525     2.485
    73   1 H        0.926     0.049     2.333     2.389
    74   1 H        0.926     0.034     2.526     2.485
    75   1 H        0.926     0.034     2.524     2.485
    76   1 H        0.926     0.050     2.326     2.385

Wiberg/Mayer (AO) data.
largest (>0.10) Wiberg bond orders for each atom

     #   Z sym  total        # sym  WBO       # sym  WBO       # sym  WBO
 ---------------------------------------------------------------------------
     1  27 Co   3.330 --    16 N    0.724    22 N    0.723    10 N    0.722
                            25 N    0.721
     2   6 C    3.953 --     3 C    1.642    24 C    1.174    26 H    0.972
     3   6 C    3.957 --     2 C    1.642     4 C    1.183    27 H    0.970
     4   6 C    3.916 --    25 N    1.262     5 C    1.258     3 C    1.183
     5   6 C    3.947 --     6 C    1.258     4 C    1.258    37 C    1.177
     6   6 C    3.916 --    10 N    1.262     5 C    1.258     7 C    1.183
     7   6 C    3.957 --     8 C    1.642     6 C    1.183    28 H    0.970
     8   6 C    3.953 --     7 C    1.642     9 C    1.174    29 H    0.972
     9   6 C    3.929 --    11 C    1.359    10 N    1.228     8 C    1.174
    10   7 N    3.514 --     6 C    1.262     9 C    1.228     1 Co   0.722
    11   6 C    3.938 --     9 C    1.359    12 C    1.358    30 H    0.963
    12   6 C    3.934 --    11 C    1.358    16 N    1.239    13 C    1.166
    13   6 C    3.957 --    14 C    1.657    12 C    1.166    31 H    0.972
    14   6 C    3.955 --    13 C    1.657    15 C    1.165    32 H    0.972
    15   6 C    3.936 --    17 C    1.358    16 N    1.242    14 C    1.165
    16   7 N    3.510 --    15 C    1.242    12 C    1.239     1 Co   0.724
    17   6 C    3.935 --    15 C    1.358    18 C    1.358    33 H    0.964
    18   6 C    3.936 --    17 C    1.358    22 N    1.242    19 C    1.165
    19   6 C    3.955 --    20 C    1.657    18 C    1.165    34 H    0.972
    20   6 C    3.957 --    19 C    1.657    21 C    1.166    35 H    0.972
    21   6 C    3.934 --    23 C    1.358    22 N    1.239    20 C    1.166
    22   7 N    3.509 --    18 C    1.242    21 C    1.239     1 Co   0.723
    23   6 C    3.938 --    24 C    1.360    21 C    1.358    36 H    0.963
    24   6 C    3.929 --    23 C    1.360    25 N    1.228     2 C    1.174
    25   7 N    3.513 --     4 C    1.262    24 C    1.228     1 Co   0.721
    26   1 H    0.998 --     2 C    0.972
    27   1 H    0.998 --     3 C    0.970
    28   1 H    0.998 --     7 C    0.970
    29   1 H    0.998 --     8 C    0.972
    30   1 H    0.996 --    11 C    0.963
    31   1 H    0.998 --    13 C    0.972
    32   1 H    0.998 --    14 C    0.972
    33   1 H    0.996 --    17 C    0.964
    34   1 H    0.998 --    19 C    0.972
    35   1 H    0.998 --    20 C    0.972
    36   1 H    0.996 --    23 C    0.963
    37   6 C    3.920 --    38 C    2.479     5 C    1.177    40 C    0.204
    38   6 C    3.931 --    37 C    2.479    39 C    1.300
    39   6 C    3.930 --    40 C    2.478    38 C    1.300
    40   6 C    3.921 --    39 C    2.478    45 C    1.180    37 C    0.204
    41  27 Co   3.360 --    56 N    0.725    62 N    0.725    65 N    0.723
                            50 N    0.723
    42   6 C    3.953 --    43 C    1.641    64 C    1.174    66 H    0.972
    43   6 C    3.957 --    42 C    1.641    44 C    1.183    67 H    0.970
    44   6 C    3.917 --    65 N    1.262    45 C    1.255    43 C    1.183
    45   6 C    3.945 --    46 C    1.256    44 C    1.255    40 C    1.180
    46   6 C    3.917 --    50 N    1.262    45 C    1.256    47 C    1.183
    47   6 C    3.957 --    48 C    1.641    46 C    1.183    68 H    0.970
    48   6 C    3.953 --    47 C    1.641    49 C    1.174    69 H    0.972
    49   6 C    3.930 --    51 C    1.358    50 N    1.227    48 C    1.174
    50   7 N    3.514 --    46 C    1.262    49 C    1.227    41 Co   0.723
    51   6 C    3.937 --    49 C    1.358    52 C    1.357    70 H    0.963
    52   6 C    3.935 --    51 C    1.357    56 N    1.239    53 C    1.166
    53   6 C    3.957 --    54 C    1.657    52 C    1.166    71 H    0.972
    54   6 C    3.955 --    53 C    1.657    55 C    1.165    72 H    0.972
    55   6 C    3.937 --    57 C    1.356    56 N    1.241    54 C    1.165
    56   7 N    3.510 --    55 C    1.241    52 C    1.239    41 Co   0.725
    57   6 C    3.933 --    55 C    1.356    58 C    1.356    73 H    0.964
    58   6 C    3.937 --    57 C    1.356    62 N    1.241    59 C    1.165
    59   6 C    3.955 --    60 C    1.656    58 C    1.165    74 H    0.972
    60   6 C    3.957 --    59 C    1.656    61 C    1.166    75 H    0.972
    61   6 C    3.935 --    63 C    1.357    62 N    1.239    60 C    1.166
    62   7 N    3.510 --    58 C    1.241    61 C    1.239    41 Co   0.725
    63   6 C    3.937 --    64 C    1.358    61 C    1.357    76 H    0.963
    64   6 C    3.930 --    63 C    1.358    65 N    1.227    42 C    1.174
    65   7 N    3.514 --    44 C    1.262    64 C    1.227    41 Co   0.723
    66   1 H    0.998 --    42 C    0.972
    67   1 H    0.998 --    43 C    0.970
    68   1 H    0.998 --    47 C    0.970
    69   1 H    0.998 --    48 C    0.972
    70   1 H    0.996 --    51 C    0.963
    71   1 H    0.998 --    53 C    0.972
    72   1 H    0.998 --    54 C    0.972
    73   1 H    0.996 --    57 C    0.964
    74   1 H    0.998 --    59 C    0.972
    75   1 H    0.998 --    60 C    0.972
    76   1 H    0.996 --    63 C    0.963
 ---------------------------------------------------------------------------

molecular dipole:
                 x           y           z       tot (Debye)
 q only:        0.059       0.005      -0.000
   full:        0.061       0.005      -0.005       0.157

 projected vibrational frequencies (cm⁻¹)
eigval :       -0.00    -0.00    -0.00     0.00     0.00     0.00
eigval :      -12.67     4.10     8.40     8.98    21.97    23.24
eigval :       27.19    35.74    49.23    78.30    90.82   100.32
eigval :      101.09   119.24   120.01   123.30   151.05   154.60
eigval :      183.37   189.35   192.54   225.11   225.53   226.74
eigval :      229.41   234.04   243.32   244.55   245.61   249.40
eigval :      250.55   251.94   265.74   266.66   271.12   271.93
eigval :      294.15   316.56   317.27   321.23   322.72   343.19
eigval :      348.70   358.41   361.80   369.99   372.07   378.81
eigval :      381.86   383.15   388.99   390.11   394.70   401.67
eigval :      405.55   412.02   422.34   423.93   437.04   438.13
eigval :      459.31   460.48   505.44   509.92   529.55   618.75
eigval :      619.31   623.20   623.38   625.43   625.87   637.22
eigval :      638.60   643.15   643.51   658.51   659.08   666.22
eigval :      666.91   673.09   673.86   722.34   723.44   724.00
eigval :      725.17   759.87   760.56   761.26   768.01   779.51
eigval :      781.02   781.07   782.32   799.05   800.01   800.38
eigval :      800.68   806.24   806.47   810.41   811.20   818.39
eigval :      818.94   819.16   826.08   826.73   833.89   834.59
eigval :      837.03   837.73   843.97   844.46   844.77   845.47
eigval :      845.62   845.90   845.95   846.47   929.71   987.32
eigval :      990.31  1002.11  1002.58  1003.66  1017.95  1022.11
eigval :     1022.26  1026.91  1027.03  1031.08  1035.34  1035.61
eigval :     1040.11  1040.38  1066.67  1067.19  1069.05  1070.24
eigval :     1071.37  1072.43  1073.46  1073.88  1126.35  1140.09
eigval :     1141.09  1141.63  1167.27  1173.79  1174.95  1175.51
eigval :     1224.77  1225.64  1225.75  1244.68  1245.61  1281.68
eigval :     1282.18  1303.67  1305.72  1307.44  1310.55  1318.00
eigval :     1320.02  1330.34  1330.87  1331.85  1332.31  1340.37
eigval :     1341.84  1352.58  1355.39  1356.36  1356.50  1402.91
eigval :     1467.29  1470.34  1471.96  1480.47  1490.97  1493.30
eigval :     1504.28  1508.41  1513.04  1517.44  1531.65  1531.99
eigval :     1535.75  1537.45  1543.62  1548.22  1559.01  1562.73
eigval :     1572.66  1578.56  1583.91  1589.80  1613.56  1620.26
eigval :     2235.09  2238.72  3093.16  3093.32  3093.55  3093.69
eigval :     3094.54  3094.69  3149.25  3149.62  3149.69  3149.97
eigval :     3153.73  3154.31  3154.46  3155.14  3163.09  3163.50
eigval :     3163.59  3164.02  3168.17  3168.59  3168.74  3169.51

   temp. (K)  partition function   enthalpy   heat capacity  entropy
                                   cal/mol     cal/K/mol   cal/K/mol   J/K/mol
 298.15  VIB  0.266E+20            24598.873    164.525    151.113
         ROT  0.178E+09              888.752      2.981     40.735
         INT  0.474E+28            25487.625    167.506    191.847
         TR   0.211E+29             1481.254      4.968     45.822
         TOT                       26968.8788   172.4740   237.6698   994.4102

       T/K    H(0)-H(T)+PV         H(T)/Eh          T*S/Eh         G(T)/Eh
   ------------------------------------------------------------------------
    298.15    0.429776E-01    0.573371E+00    0.112925E+00    0.460447E+00
   ------------------------------------------------------------------------

         :::::::::::::::::::::::::::::::::::::::::::::::::::::
         ::                  THERMODYNAMIC                  ::
         :::::::::::::::::::::::::::::::::::::::::::::::::::::
         :: total free energy        -135.757643696604 Eh   ::
         ::.................................................::
         :: total energy             -136.218090264476 Eh   ::
         :: zero point energy           0.530393492106 Eh   ::
         :: G(RRHO) w/o ZPVE           -0.069946924234 Eh   ::
         :: G(RRHO) contrib.            0.460446567872 Eh   ::
         :::::::::::::::::::::::::::::::::::::::::::::::::::::

           -------------------------------------------------
          | TOTAL ENERGY             -136.218090264476 Eh   |
          | TOTAL ENTHALPY           -135.644719128360 Eh   |
          | TOTAL FREE ENERGY        -135.757643696604 Eh   |
          | GRADIENT NORM               0.000845573077 Eh/α |
          | HOMO-LUMO GAP               0.004285588231 eV   |
           -------------------------------------------------

 * finished run on 2021/11/19 at 10:45:54.314
