   * xtb version 6.4.1 (bd6e46d) compiled by 'conda@4901f00b25ba' on 2021-06-10
          program call               : /home/jeff/miniconda3/bin/xtb input_structure_1.xyz --gfn 2 --ohess normal --parallel 1 --etemp 300 --chrg 0 --uhf 0 -I det_control.in
          number of atoms            :                   119
          number of electrons        :                   413
          charge                     :                     0
          spin                       :                   0.5

   ID    Z sym.   atoms
    1   29 Cu     1, 37, 85
    2    6 C      2-9, 11-15, 17-21, 23, 24, 38-45, 47-51, 53-57, 59, 60,
                  73-84, 86-93, 95-99, 101-105, 107, 108
    3    7 N      10, 16, 22, 25, 46, 52, 58, 61, 94, 100, 106, 109
    4    1 H      26-36, 62-72, 110-119

          :  Hamiltonian                  GFN2-xTB          :
 * total energy  :  -215.9774311 Eh     change       -0.2403979E-07 Eh
 * total energy  :  -216.3094217 Eh     change       -0.3319906E+00 Eh
 * total energy  :  -216.4488503 Eh     change       -0.1394286E+00 Eh
 * total energy  :  -216.5228613 Eh     change       -0.7401094E-01 Eh
 * total energy  :  -216.5690516 Eh     change       -0.4619039E-01 Eh
 * total energy  :  -216.6024910 Eh     change       -0.3343941E-01 Eh
 * total energy  :  -216.6254583 Eh     change       -0.2296722E-01 Eh
 * total energy  :  -216.6399551 Eh     change       -0.1449679E-01 Eh
 * total energy  :  -216.6491031 Eh     change       -0.9148062E-02 Eh
 * total energy  :  -216.6560160 Eh     change       -0.6912861E-02 Eh
 * total energy  :  -217.1555519 Eh     change       -0.4014063E-04 Eh
 * total energy  :  -217.1555675 Eh     change       -0.1565479E-04 Eh
 * total energy  :  -217.1555628 Eh     change        0.4720805E-05 Eh
 * total energy  :  -217.1555761 Eh     change       -0.1334140E-04 Eh
 * total energy  :  -217.1555828 Eh     change       -0.6663292E-05 Eh
 * total energy  :  -217.1555928 Eh     change       -0.9975869E-05 Eh
 * total energy  :  -217.1556066 Eh     change       -0.1377096E-04 Eh
 * total energy  :  -217.1556150 Eh     change       -0.8460525E-05 Eh
 * total energy  :  -217.1556192 Eh     change       -0.4210329E-05 Eh
   *** GEOMETRY OPTIMIZATION CONVERGED AFTER 67 ITERATIONS ***

 final structure:
================
119
 xtb: 6.4.1 (bd6e46d)
Cu       11.91283212930985   -0.00423660911868   -0.00759640030032
C        14.43787465748912   -3.43155614255167    0.01866720830712
C        15.39130681134044   -2.46980031095334    0.01815975008833
C        14.70333616506114   -1.21069535656230    0.00826481279556
C        15.35126855459504    0.03379554462378    0.00135385242663
C        14.67618960622766    1.26351867610577   -0.00690597127607
C        15.33637955410732    2.53742433106233   -0.01215476665564
C        14.36208490347944    3.47801753439932   -0.01550765980787
C        13.10999696512042    2.77667165209610   -0.01276718662495
N        13.33472444936335    1.43446908242400   -0.00820699578691
C        11.87396626625569    3.39806763181367   -0.01320553478209
C        10.65304966033112    2.74727889507098   -0.01244745523058
C         9.38061599300425    3.41665614511948   -0.01322597651400
C         8.43298407868015    2.45157337829174   -0.01644577638667
C         9.12532556702087    1.19133970328096   -0.01751349664176
N        10.46553636351290    1.40323740406542   -0.01387632402539
C         8.49746039480063   -0.04197461391985   -0.02442622751927
C         9.15228795553529   -1.26120704580405   -0.02438814852912
C         8.48795730791067   -2.53649964852456   -0.03288817482165
C         9.45663198686421   -3.48042784073398   -0.02521427839805
C        10.71394138645568   -2.78303720363777   -0.01240784365400
N        10.49680134277316   -1.44345928441911   -0.01334798745459
C        11.94888851732432   -3.40656311426665    0.00044916886116
C        13.17078794428546   -2.75791894200190    0.00850695773034
N        13.36596070164867   -1.41107054376475    0.00350235892354
H        14.56205781045353   -4.49712549061464    0.02466706879877
H        16.45830321753673   -2.58068083030508    0.02350225843421
H        16.40074490375575    2.67147805637240   -0.01257881846507
H        14.46273945607509    4.54604252553262   -0.01972500129657
H        11.86240945458246    4.47853245026114   -0.01475082466107
H         9.25373429845267    4.48211336257241   -0.01179770118177
H         7.36536244908268    2.55890366958382   -0.01792440699450
H         7.41725231173422   -0.05385421707964   -0.03023416352593
H         7.42300006630447   -2.66747468421451   -0.04350570372771
H         9.35335644915688   -4.54849382854116   -0.02810256483049
H        11.96134298893806   -4.48701495797599    0.00306087240610
Cu       43.93798348087142    0.02509549764833   -0.00579937774241
C        41.42434372067339    3.40280471387316    0.62389889591538
C        40.46775475195541    2.46026278149332    0.44909486677977
C        41.15154869489182    1.21984204974894    0.22013730171265
C        40.49955160864997   -0.00256567798871   -0.00093464660739
C        41.17045920710758   -1.21460273612652   -0.22180534659961
C        40.50594009377923   -2.46622030297326   -0.44672208964367
C        41.47701404569504   -3.39404597198121   -0.62039160022706
C        42.73144182564868   -2.70721171216286   -0.50125663697793
N        42.51130391112529   -1.38627248826282   -0.25906792910120
C        43.96526524667674   -3.32161060104482   -0.61946550429147
C        45.18832973739131   -2.68448370520760   -0.50875322227422
C        46.45851323973119   -3.34620583841741   -0.63520342750165
C        47.40937460725746   -2.39900427748101   -0.46765278214242
C        46.72127725310013   -1.15739972638030   -0.23847331842505
N        45.38037911352487   -1.36266958215341   -0.26894275126161
C        47.35324637924071    0.05459603989373   -0.02172960658495
C        46.70257496069441    1.25519248855880    0.20282502500543
C        47.37126411218911    2.50799701825269    0.42856017053970
C        46.40581995099213    3.43790366085579    0.60908567622851
C        45.14610072548411    2.75462043186036    0.49272272114772
N        45.35866568825553    1.43702074015444    0.24717644222051
C        43.91327562340966    3.37059822971534    0.61452262609536
C        42.68917747473445    2.73637707621933    0.50010634848748
N        42.48957324694713    1.41261195561643    0.25531843549190
H        41.30373656970247    4.45099266862611    0.81785507231484
H        39.40112937184605    2.57281348788829    0.46926054074285
H        39.44108951767561   -2.59555549353104   -0.46485478672681
H        41.37264512180894   -4.44459067788098   -0.81138674667533
H        43.97311641189071   -4.38447823721776   -0.81385552242287
H        46.58181159463607   -4.39481764683418   -0.82646893104364
H        48.47663988841793   -2.50732945722581   -0.49215760711396
H        48.43347964437038    0.06402719848470   -0.02740562464115
H        48.43668010038835    2.63490894198867    0.44240768192717
H        46.51277506498841    4.48792116471483    0.80246614087779
H        43.90454806379910    4.43278329182872    0.81257091338226
C        16.74792338742798    0.04782994676929    0.00236772926718
C        17.96797164770756    0.04932545340050    0.00252792513868
C        19.30405153521293    0.05238605225386    0.00139190554461
C        20.52847294232335    0.05920325427466    0.00626044207092
C        21.86438264491819    0.05670003765721    0.00590762958723
C        23.08455186063798    0.05835789804502    0.00211623353069
C        32.76606774635446   -0.01287409040338   -0.00847132641440
C        33.98627085594959   -0.01598665212853   -0.00518941557351
C        35.32225983585026   -0.01807505566811   -0.00329297049548
C        36.54667954814640   -0.01764310778644   -0.00062573978196
C        37.88282031351824   -0.01442770100652   -0.00058086146483
C        39.10277806232180   -0.01264498548213   -0.00066890553234
Cu       27.92525588579044    0.02179756147765   -0.01237535255500
C        25.41189629772341   -3.38933600097662    0.39851123213341
C        24.45307933135523   -2.43797956238603    0.29809330914592
C        25.13431036669432   -1.18486032146765    0.14279051891282
C        24.48046362176276    0.04858698554342   -0.00249152078978
C        25.15236845198193    1.27138062340664   -0.15344152665420
C        24.48966527193673    2.53448383439896   -0.30758967823682
C        25.46245198123856    3.47037913398887   -0.41858621304290
C        26.71532676069816    2.77636860514710   -0.33110290902763
N        26.49302443041472    1.44319929977817   -0.17257568891792
C        27.95037095398067    3.39608354455263   -0.39365228288518
C        29.17600023444411    2.76033323265030   -0.31052067804783
C        30.43898591902859    3.43851277799890   -0.37242820378966
C        31.39771423600386    2.48810557638198   -0.26272867537737
C        30.71633062631033    1.23190096638093   -0.13546389715405
N        29.37843764651771    1.42254475494782   -0.16460112628851
C        31.37007146679399   -0.00376244053938   -0.01100479433049
C        30.69817860540688   -1.22989658225623    0.10961802658678
C        31.36079828884305   -2.49655155866828    0.23164909669913
C        30.38800204899642   -3.43331109969030    0.33502745656831
C        29.13524453630582   -2.73612797726839    0.27617381845874
N        29.35757358534518   -1.40088256063088    0.13657591341255
C        27.90031579788052   -3.35360085615548    0.35885630887592
C        26.67478303448426   -2.71459699675946    0.30488337645739
N        26.47217643271053   -1.37757318322453    0.15250026951678
H        25.29362372340826   -4.44815325450051    0.52427358625701
H        23.38673324079499   -2.55245499338662    0.32377337693150
H        23.42502041588147    2.66537639647330   -0.32606376784440
H        25.35989491997760    4.53048671023118   -0.54712647497151
H        27.95845164483892    4.46978725494119   -0.51636852529355
H        30.55736017662177    4.49879260038974   -0.48470758248347
H        32.46407608951481    2.60491108666510   -0.26624284494299
H        32.42539757995069   -2.62906576930902    0.23537305299375
H        30.49051287127245   -4.49594866095141    0.44128588711068
H        27.89223042644030   -4.42786985928476    0.47650754616607

          :  Hamiltonian                  GFN2-xTB          :
         :: gradient norm              0.000599029941 Eh/a0 ::
         :: HOMO-LUMO gap              0.000004814777 eV    ::
         :: SCC energy              -221.132531420277 Eh    ::
         :: -> dispersion             -0.186313312511 Eh    ::
         :: repulsion energy           3.979464020149 Eh    ::

    * Orbital Energies and Occupations

         #    Occupation            Energy/Eh            Energy/eV
      -------------------------------------------------------------
         1        2.0000           -0.6793450             -18.4859
       ...           ...                  ...                  ...
       195        2.0000           -0.3768300             -10.2541
       196        2.0000           -0.3759768             -10.2308
       197        2.0000           -0.3712595             -10.1025
       198        2.0000           -0.3712451             -10.1021
       199        2.0000           -0.3710887             -10.0978
       200        2.0000           -0.3702217             -10.0742
       201        2.0000           -0.3702049             -10.0738
       202        2.0000           -0.3690430             -10.0422
       203        2.0000           -0.3676419             -10.0040
       204        2.0000           -0.3603571              -9.8058
       205        2.0000           -0.3514641              -9.5638
       206        1.0178           -0.3219043              -8.7595
       207        0.9916           -0.3218482              -8.7579 (HOMO)
       208        0.9900           -0.3218448              -8.7578 (LUMO)
       209        0.0005           -0.3138262              -8.5396
       210                         -0.3049528              -8.2982
       211                         -0.2999871              -8.1631
       212                         -0.2999759              -8.1628
       213                         -0.2997217              -8.1558
       214                         -0.2977011              -8.1009
       215                         -0.2734082              -7.4398
       216                         -0.2639511              -7.1825
       217                         -0.2603996              -7.0858
       218                         -0.2536144              -6.9012
       ...                                ...                  ...
       395                          1.7147861              46.6617
      -------------------------------------------------------------
                  HL-Gap            0.0000034 Eh            0.0001 eV

     #   Z          covCN         q      C6AA      α(0)
     1  29 Cu       2.956     0.198   146.185    27.531
     2   6 C        3.023    -0.051    29.231     8.869
     3   6 C        3.020    -0.049    29.196     8.863
     4   6 C        3.165     0.079    25.918     8.320
     5   6 C        2.953     0.017    27.638     8.623
     6   6 C        3.165     0.079    25.918     8.320
     7   6 C        3.020    -0.049    29.193     8.863
     8   6 C        3.023    -0.051    29.232     8.869
     9   6 C        3.148     0.077    26.022     8.345
    10   7 N        2.620    -0.172    24.730     7.386
    11   6 C        2.901    -0.050    29.229     8.865
    12   6 C        3.144     0.078    26.009     8.344
    13   6 C        3.019    -0.050    29.209     8.865
    14   6 C        3.019    -0.050    29.213     8.866
    15   6 C        3.144     0.079    25.994     8.342
    16   7 N        2.623    -0.170    24.689     7.380
    17   6 C        2.901    -0.051    29.273     8.871
    18   6 C        3.144     0.079    25.995     8.342
    19   6 C        3.019    -0.050    29.213     8.866
    20   6 C        3.019    -0.050    29.209     8.865
    21   6 C        3.144     0.078    26.010     8.344
    22   7 N        2.622    -0.170    24.689     7.380
    23   6 C        2.901    -0.050    29.229     8.865
    24   6 C        3.148     0.077    26.022     8.345
    25   7 N        2.620    -0.172    24.729     7.385
    26   1 H        0.926     0.034     2.525     2.485
    27   1 H        0.926     0.037     2.496     2.470
    28   1 H        0.926     0.036     2.496     2.471
    29   1 H        0.926     0.034     2.525     2.485
    30   1 H        0.926     0.050     2.321     2.383
    31   1 H        0.926     0.035     2.516     2.480
    32   1 H        0.926     0.035     2.517     2.481
    33   1 H        0.926     0.049     2.331     2.387
    34   1 H        0.926     0.035     2.517     2.481
    35   1 H        0.926     0.035     2.516     2.480
    36   1 H        0.926     0.050     2.321     2.383
    37  29 Cu       2.956     0.198   146.185    27.531
    38   6 C        3.023    -0.051    29.231     8.869
    39   6 C        3.020    -0.049    29.195     8.863
    40   6 C        3.165     0.079    25.917     8.320
    41   6 C        2.953     0.017    27.638     8.623
    42   6 C        3.165     0.079    25.918     8.320
    43   6 C        3.020    -0.049    29.193     8.863
    44   6 C        3.023    -0.051    29.231     8.869
    45   6 C        3.148     0.077    26.022     8.345
    46   7 N        2.620    -0.172    24.730     7.386
    47   6 C        2.901    -0.050    29.229     8.865
    48   6 C        3.144     0.078    26.009     8.344
    49   6 C        3.019    -0.050    29.209     8.865
    50   6 C        3.019    -0.050    29.213     8.866
    51   6 C        3.144     0.079    25.995     8.342
    52   7 N        2.623    -0.170    24.689     7.380
    53   6 C        2.901    -0.051    29.273     8.871
    54   6 C        3.144     0.079    25.995     8.342
    55   6 C        3.019    -0.050    29.213     8.866
    56   6 C        3.019    -0.050    29.209     8.865
    57   6 C        3.144     0.078    26.010     8.344
    58   7 N        2.623    -0.170    24.689     7.380
    59   6 C        2.901    -0.050    29.229     8.865
    60   6 C        3.148     0.077    26.022     8.345
    61   7 N        2.620    -0.172    24.730     7.386
    62   1 H        0.926     0.034     2.525     2.485
    63   1 H        0.926     0.036     2.496     2.470
    64   1 H        0.926     0.036     2.496     2.471
    65   1 H        0.926     0.034     2.525     2.485
    66   1 H        0.926     0.050     2.321     2.383
    67   1 H        0.926     0.035     2.516     2.480
    68   1 H        0.926     0.035     2.517     2.481
    69   1 H        0.926     0.049     2.331     2.387
    70   1 H        0.926     0.035     2.517     2.481
    71   1 H        0.926     0.035     2.516     2.480
    72   1 H        0.926     0.050     2.321     2.383
    73   6 C        1.995    -0.019    31.554     9.072
    74   6 C        1.963    -0.010    31.332     9.039
    75   6 C        1.965    -0.002    31.125     9.009
    76   6 C        1.965    -0.002    31.121     9.009
    77   6 C        1.963    -0.010    31.333     9.040
    78   6 C        1.995    -0.019    31.548     9.071
    79   6 C        1.995    -0.019    31.546     9.071
    80   6 C        1.963    -0.010    31.333     9.040
    81   6 C        1.964    -0.002    31.120     9.009
    82   6 C        1.965    -0.002    31.124     9.009
    83   6 C        1.963    -0.010    31.331     9.039
    84   6 C        1.995    -0.019    31.553     9.071
    85  29 Cu       2.946     0.200   146.154    27.528
    86   6 C        3.023    -0.051    29.232     8.869
    87   6 C        3.020    -0.049    29.203     8.864
    88   6 C        3.166     0.079    25.905     8.317
    89   6 C        2.953     0.017    27.638     8.623
    90   6 C        3.166     0.079    25.905     8.317
    91   6 C        3.020    -0.049    29.201     8.864
    92   6 C        3.023    -0.051    29.232     8.869
    93   6 C        3.149     0.077    26.030     8.346
    94   7 N        2.619    -0.173    24.765     7.391
    95   6 C        2.901    -0.047    29.175     8.856
    96   6 C        3.149     0.077    26.030     8.346
    97   6 C        3.023    -0.051    29.232     8.869
    98   6 C        3.020    -0.049    29.203     8.864
    99   6 C        3.166     0.079    25.905     8.317
   100   7 N        2.619    -0.173    24.765     7.391
   101   6 C        2.953     0.017    27.638     8.623
   102   6 C        3.166     0.079    25.905     8.317
   103   6 C        3.020    -0.049    29.201     8.864
   104   6 C        3.023    -0.051    29.232     8.869
   105   6 C        3.149     0.077    26.029     8.345
   106   7 N        2.619    -0.173    24.765     7.391
   107   6 C        2.901    -0.047    29.174     8.856
   108   6 C        3.149     0.077    26.030     8.346
   109   7 N        2.619    -0.173    24.764     7.391
   110   1 H        0.926     0.034     2.532     2.488
   111   1 H        0.926     0.036     2.506     2.475
   112   1 H        0.926     0.036     2.506     2.476
   113   1 H        0.926     0.034     2.532     2.489
   114   1 H        0.926     0.050     2.319     2.382
   115   1 H        0.926     0.034     2.532     2.488
   116   1 H        0.926     0.036     2.506     2.475
   117   1 H        0.926     0.036     2.506     2.476
   118   1 H        0.926     0.034     2.532     2.489
   119   1 H        0.926     0.050     2.319     2.381

Wiberg/Mayer (AO) data.
largest (>0.10) Wiberg bond orders for each atom

     #   Z sym  total        # sym  WBO       # sym  WBO       # sym  WBO
 ---------------------------------------------------------------------------
     1  29 Cu   2.327 --    16 N    0.534    22 N    0.534    25 N    0.533
                            10 N    0.533
     2   6 C    3.946 --     3 C    1.650    24 C    1.167    26 H    0.972
     3   6 C    3.949 --     2 C    1.650     4 C    1.175    27 H    0.971
     4   6 C    3.908 --    25 N    1.289     5 C    1.248     3 C    1.175
     5   6 C    3.942 --     6 C    1.249     4 C    1.248    73 C    1.188
     6   6 C    3.908 --    10 N    1.289     5 C    1.249     7 C    1.175
     7   6 C    3.949 --     8 C    1.650     6 C    1.175    28 H    0.971
     8   6 C    3.946 --     7 C    1.650     9 C    1.167    29 H    0.972
     9   6 C    3.921 --    11 C    1.355    10 N    1.249     8 C    1.167
    10   7 N    3.382 --     6 C    1.289     9 C    1.249     1 Cu   0.533
    11   6 C    3.932 --     9 C    1.355    12 C    1.352    30 H    0.964
    12   6 C    3.927 --    11 C    1.352    16 N    1.263    13 C    1.158
    13   6 C    3.950 --    14 C    1.666    12 C    1.158    31 H    0.972
    14   6 C    3.947 --    13 C    1.666    15 C    1.158    32 H    0.972
    15   6 C    3.929 --    17 C    1.351    16 N    1.265    14 C    1.158
    16   7 N    3.377 --    15 C    1.265    12 C    1.263     1 Cu   0.534
    17   6 C    3.926 --    15 C    1.351    18 C    1.351    33 H    0.964
    18   6 C    3.929 --    17 C    1.351    22 N    1.265    19 C    1.157
    19   6 C    3.947 --    20 C    1.666    18 C    1.157    34 H    0.972
    20   6 C    3.950 --    19 C    1.666    21 C    1.158    35 H    0.972
    21   6 C    3.927 --    23 C    1.352    22 N    1.263    20 C    1.158
    22   7 N    3.377 --    18 C    1.265    21 C    1.263     1 Cu   0.534
    23   6 C    3.932 --    24 C    1.355    21 C    1.352    36 H    0.964
    24   6 C    3.921 --    23 C    1.355    25 N    1.249     2 C    1.167
    25   7 N    3.382 --     4 C    1.289    24 C    1.249     1 Cu   0.533
    26   1 H    0.998 --     2 C    0.972
    27   1 H    0.998 --     3 C    0.971
    28   1 H    0.998 --     7 C    0.971
    29   1 H    0.998 --     8 C    0.972
    30   1 H    0.996 --    11 C    0.964
    31   1 H    0.998 --    13 C    0.972
    32   1 H    0.998 --    14 C    0.972
    33   1 H    0.997 --    17 C    0.964
    34   1 H    0.998 --    19 C    0.972
    35   1 H    0.998 --    20 C    0.972
    36   1 H    0.996 --    23 C    0.964
    37  29 Cu   2.326 --    52 N    0.534    58 N    0.534    46 N    0.532
                            61 N    0.532
    38   6 C    3.946 --    39 C    1.650    60 C    1.167    62 H    0.972
    39   6 C    3.949 --    38 C    1.650    40 C    1.175    63 H    0.971
    40   6 C    3.908 --    61 N    1.289    41 C    1.248    39 C    1.175
    41   6 C    3.942 --    42 C    1.249    40 C    1.248    84 C    1.188
    42   6 C    3.908 --    46 N    1.288    41 C    1.249    43 C    1.175
    43   6 C    3.949 --    44 C    1.650    42 C    1.175    64 H    0.971
    44   6 C    3.946 --    43 C    1.650    45 C    1.167    65 H    0.972
    45   6 C    3.921 --    47 C    1.355    46 N    1.249    44 C    1.167
    46   7 N    3.382 --    42 C    1.288    45 C    1.249    37 Cu   0.532
    47   6 C    3.932 --    45 C    1.355    48 C    1.352    66 H    0.964
    48   6 C    3.927 --    47 C    1.352    52 N    1.263    49 C    1.158
    49   6 C    3.950 --    50 C    1.666    48 C    1.158    67 H    0.972
    50   6 C    3.948 --    49 C    1.666    51 C    1.158    68 H    0.972
    51   6 C    3.929 --    53 C    1.351    52 N    1.265    50 C    1.158
    52   7 N    3.377 --    51 C    1.265    48 C    1.263    37 Cu   0.534
    53   6 C    3.926 --    54 C    1.352    51 C    1.351    69 H    0.964
    54   6 C    3.929 --    53 C    1.352    58 N    1.265    55 C    1.158
    55   6 C    3.948 --    56 C    1.666    54 C    1.158    70 H    0.972
    56   6 C    3.950 --    55 C    1.666    57 C    1.158    71 H    0.972
    57   6 C    3.927 --    59 C    1.352    58 N    1.263    56 C    1.158
    58   7 N    3.377 --    54 C    1.265    57 C    1.263    37 Cu   0.534
    59   6 C    3.932 --    60 C    1.355    57 C    1.352    72 H    0.964
    60   6 C    3.921 --    59 C    1.355    61 N    1.249    38 C    1.167
    61   7 N    3.382 --    40 C    1.289    60 C    1.249    37 Cu   0.532
    62   1 H    0.998 --    38 C    0.972
    63   1 H    0.998 --    39 C    0.971
    64   1 H    0.998 --    43 C    0.971
    65   1 H    0.998 --    44 C    0.972
    66   1 H    0.996 --    47 C    0.964
    67   1 H    0.998 --    49 C    0.972
    68   1 H    0.998 --    50 C    0.972
    69   1 H    0.997 --    53 C    0.964
    70   1 H    0.998 --    55 C    0.972
    71   1 H    0.998 --    56 C    0.972
    72   1 H    0.996 --    59 C    0.964
    73   6 C    3.883 --    74 C    2.442     5 C    1.188    76 C    0.193
    74   6 C    3.927 --    73 C    2.442    75 C    1.333
    75   6 C    3.918 --    76 C    2.356    74 C    1.333    78 C    0.192
    76   6 C    3.919 --    75 C    2.356    77 C    1.334    73 C    0.193
    77   6 C    3.924 --    78 C    2.439    76 C    1.334
    78   6 C    3.884 --    77 C    2.439    89 C    1.191    75 C    0.192
    79   6 C    3.883 --    80 C    2.439   101 C    1.191    82 C    0.192
    80   6 C    3.924 --    79 C    2.439    81 C    1.333
    81   6 C    3.919 --    82 C    2.356    80 C    1.333    84 C    0.193
    82   6 C    3.918 --    81 C    2.356    83 C    1.332    79 C    0.192
    83   6 C    3.927 --    84 C    2.442    82 C    1.332
    84   6 C    3.883 --    83 C    2.442    41 C    1.188    81 C    0.193
    85  29 Cu   2.297 --    94 N    0.527   109 N    0.527   100 N    0.527
                           106 N    0.527
    86   6 C    3.947 --    87 C    1.649   108 C    1.168   110 H    0.972
    87   6 C    3.948 --    86 C    1.649    88 C    1.176   111 H    0.971
    88   6 C    3.908 --   109 N    1.292    89 C    1.245    87 C    1.176
    89   6 C    3.930 --    90 C    1.246    88 C    1.245    78 C    1.191
    90   6 C    3.909 --    94 N    1.291    89 C    1.246    91 C    1.176
    91   6 C    3.948 --    92 C    1.649    90 C    1.176   112 H    0.971
    92   6 C    3.947 --    91 C    1.649    93 C    1.168   113 H    0.972
    93   6 C    3.920 --    95 C    1.354    94 N    1.248    92 C    1.168
    94   7 N    3.372 --    90 C    1.291    93 C    1.248    85 Cu   0.527
    95   6 C    3.926 --    96 C    1.354    93 C    1.354   114 H    0.964
    96   6 C    3.920 --    95 C    1.354   100 N    1.248    97 C    1.168
    97   6 C    3.947 --    98 C    1.649    96 C    1.168   115 H    0.972
    98   6 C    3.948 --    97 C    1.649    99 C    1.175   116 H    0.971
    99   6 C    3.909 --   100 N    1.291   101 C    1.246    98 C    1.175
   100   7 N    3.372 --    99 C    1.291    96 C    1.248    85 Cu   0.527
   101   6 C    3.930 --   102 C    1.246    99 C    1.246    79 C    1.191
   102   6 C    3.909 --   106 N    1.291   101 C    1.246   103 C    1.175
   103   6 C    3.948 --   104 C    1.649   102 C    1.175   117 H    0.971
   104   6 C    3.947 --   103 C    1.649   105 C    1.168   118 H    0.972
   105   6 C    3.920 --   107 C    1.354   106 N    1.248   104 C    1.168
   106   7 N    3.372 --   102 C    1.291   105 C    1.248    85 Cu   0.527
   107   6 C    3.926 --   108 C    1.354   105 C    1.354   119 H    0.964
   108   6 C    3.920 --   107 C    1.354   109 N    1.248    86 C    1.168
   109   7 N    3.372 --    88 C    1.292   108 C    1.248    85 Cu   0.527
   110   1 H    0.998 --    86 C    0.972
   111   1 H    0.998 --    87 C    0.971
   112   1 H    0.998 --    91 C    0.971
   113   1 H    0.998 --    92 C    0.972
   114   1 H    0.996 --    95 C    0.964
   115   1 H    0.998 --    97 C    0.972
   116   1 H    0.998 --    98 C    0.971
   117   1 H    0.998 --   103 C    0.971
   118   1 H    0.998 --   104 C    0.972
   119   1 H    0.996 --   107 C    0.964
 ---------------------------------------------------------------------------

molecular dipole:
                 x           y           z       tot (Debye)
 q only:        0.003      -0.001      -0.004
   full:        0.003      -0.001      -0.006       0.019

 projected vibrational frequencies (cm⁻¹)
eigval :       -0.00    -0.00     0.00     0.00     0.00     0.00
eigval :       -9.56    -5.85     1.24     2.11     6.45     6.72
eigval :       10.27    17.89    19.08    26.53    28.33    30.64
eigval :       37.33    38.52    38.74    40.19    52.46    69.07
eigval :       77.61    83.93    84.57    85.19    87.75    92.26
eigval :       93.48   110.29   116.10   120.74   120.80   123.39
eigval :      130.51   135.20   160.62   161.25   165.27   165.44
eigval :      165.92   174.63   180.36   183.64   184.16   184.56
eigval :      185.31   196.30   198.50   204.83   207.77   207.91
eigval :      209.33   209.53   211.10   214.36   216.69   217.43
eigval :      219.77   220.64   221.21   227.12   232.74   259.24
eigval :      259.37   259.66   274.90   287.73   295.98   299.99
eigval :      313.18   319.25   320.20   320.42   323.78   330.52
eigval :      339.69   346.15   346.32   350.10   350.79   354.04
eigval :      354.26   358.22   365.14   366.12   366.50   366.61
eigval :      371.87   383.10   383.48   385.00   386.92   389.61
eigval :      390.73   391.58   391.68   391.79   392.01   394.54
eigval :      394.61   399.93   426.41   426.42   427.15   427.88
eigval :      428.65   451.33   457.58   457.64   460.58   462.61
eigval :      480.27   501.84   504.36   504.43   506.55   611.16
eigval :      611.54   611.63   613.62   617.56   617.65   622.31
eigval :      622.36   623.20   639.19   642.37   642.39   642.91
eigval :      642.92   649.88   651.02   651.06   651.52   657.32
eigval :      657.33   665.88   667.98   668.01   669.88   702.80
eigval :      706.71   721.37   723.14   723.24   723.32   753.72
eigval :      757.31   757.32   759.52   761.99   764.21   769.65
eigval :      770.66   776.82   776.82   779.25   779.36   796.12
eigval :      796.21   796.54   797.31   797.84   797.87   803.34
eigval :      805.07   805.11   805.30   810.53   810.61   815.89
eigval :      817.78   818.50   818.58   826.61   826.62   833.55
eigval :      833.56   834.97   835.56   837.07   837.10   842.37
eigval :      842.74   842.86   842.94   843.19   843.30   843.54
eigval :      843.57   843.58   845.39   845.46   845.51   898.12
eigval :      900.05   960.81   967.16   999.81  1002.08  1003.66
eigval :     1003.92  1005.83  1007.08  1022.27  1024.80  1029.04
eigval :     1029.12  1029.35  1034.30  1034.36  1036.89  1040.31
eigval :     1040.40  1043.26  1043.63  1043.71  1044.16  1066.53
eigval :     1066.56  1068.22  1068.65  1069.07  1069.18  1070.60
eigval :     1070.68  1071.22  1074.99  1076.54  1078.86  1080.92
eigval :     1084.94  1138.32  1146.79  1154.51  1154.53  1160.30
eigval :     1167.98  1169.10  1175.12  1175.17  1176.99  1180.77
eigval :     1216.78  1227.56  1227.60  1240.79  1240.86  1241.93
eigval :     1275.92  1278.14  1285.20  1288.30  1288.40  1296.55
eigval :     1300.50  1302.01  1302.07  1305.35  1311.05  1317.60
eigval :     1320.11  1320.22  1328.31  1330.60  1333.16  1333.33
eigval :     1339.83  1341.18  1344.59  1344.62  1347.02  1348.72
eigval :     1364.69  1367.59  1367.73  1367.77  1368.00  1426.92
eigval :     1430.26  1446.92  1452.90  1453.43  1453.54  1458.05
eigval :     1474.45  1475.60  1488.53  1488.66  1502.68  1502.85
eigval :     1506.38  1507.11  1510.15  1510.20  1513.83  1521.43
eigval :     1521.53  1522.58  1523.69  1529.37  1530.53  1537.05
eigval :     1537.14  1541.09  1545.36  1551.84  1552.86  1559.52
eigval :     1559.62  1569.48  1569.94  1571.28  1596.06  1603.25
eigval :     1603.34  2153.12  2157.77  2202.57  2202.64  2263.15
eigval :     2264.04  3082.68  3082.82  3084.48  3084.51  3084.53
eigval :     3084.60  3086.74  3086.80  3147.89  3147.94  3148.27
eigval :     3148.48  3152.15  3152.20  3152.55  3152.78  3152.82
eigval :     3152.99  3153.00  3153.22  3161.63  3161.67  3162.04
eigval :     3162.27  3166.26  3166.39  3166.62  3166.89  3166.96
eigval :     3167.18  3167.21  3167.41

   temp. (K)  partition function   enthalpy   heat capacity  entropy
                                   cal/mol     cal/K/mol   cal/K/mol   J/K/mol
 298.15  VIB  0.383E+38            43444.550    275.718    277.337
         ROT  0.119E+10              888.752      2.981     44.508
         INT  0.455E+47            44333.302    278.699    321.844
         TR   0.431E+29             1481.254      4.968     47.239
         TOT                       45814.5563   283.6669   369.0834  1544.2448

       T/K    H(0)-H(T)+PV         H(T)/Eh          T*S/Eh         G(T)/Eh
   ------------------------------------------------------------------------
    298.15    0.730101E-01    0.882920E+00    0.175363E+00    0.707556E+00
   ------------------------------------------------------------------------

         :::::::::::::::::::::::::::::::::::::::::::::::::::::
         ::                  THERMODYNAMIC                  ::
         :::::::::::::::::::::::::::::::::::::::::::::::::::::
         :: total free energy        -216.448062734551 Eh   ::
         ::.................................................::
         :: total energy             -217.155619094146 Eh   ::
         :: zero point energy           0.809909627852 Eh   ::
         :: G(RRHO) w/o ZPVE           -0.102353268257 Eh   ::
         :: G(RRHO) contrib.            0.707556359595 Eh   ::
         :::::::::::::::::::::::::::::::::::::::::::::::::::::

           -------------------------------------------------
          | TOTAL ENERGY             -217.155619094146 Eh   |
          | TOTAL ENTHALPY           -216.272699323583 Eh   |
          | TOTAL FREE ENERGY        -216.448062734551 Eh   |
          | GRADIENT NORM               0.000599179226 Eh/α |
          | HOMO-LUMO GAP               0.000093147810 eV   |
           -------------------------------------------------

 * finished run on 2021/11/19 at 12:03:27.403
