   * xtb version 6.4.1 (bd6e46d) compiled by 'conda@4901f00b25ba' on 2021-06-10
          program call               : /home/jeff/miniconda3/bin/xtb input_structure_1.xyz --gfn 2 --ohess normal --parallel 1 --etemp 300 --chrg 0 --uhf 0 -I det_control.in
          number of atoms            :                    78
          number of electrons        :                   262
          charge                     :                     0
          spin                       :                   0.0

   ID    Z sym.   atoms
    1   26 Fe     1, 43
    2    6 C      2-9, 11-15, 17-21, 23, 24, 37-42, 44-51, 53-57, 59-63, 65,
                  66
    3    7 N      10, 16, 22, 25, 52, 58, 64, 67
    4    1 H      26-36, 68-78

          :  Hamiltonian                  GFN2-xTB          :
 * total energy  :  -138.6321962 Eh     change       -0.1842352E-08 Eh
 * total energy  :  -139.0615623 Eh     change       -0.4293661E+00 Eh
 * total energy  :  -139.1713157 Eh     change       -0.1097534E+00 Eh
 * total energy  :  -139.2317007 Eh     change       -0.6038498E-01 Eh
 * total energy  :  -139.2689305 Eh     change       -0.3722980E-01 Eh
 * total energy  :  -139.2977205 Eh     change       -0.2879001E-01 Eh
 * total energy  :  -139.3174198 Eh     change       -0.1969927E-01 Eh
 * total energy  :  -139.3281441 Eh     change       -0.1072431E-01 Eh
 * total energy  :  -139.3340542 Eh     change       -0.5910110E-02 Eh
 * total energy  :  -139.3377560 Eh     change       -0.3701783E-02 Eh
 * total energy  :  -139.3677006 Eh     change       -0.3315687E-03 Eh
 * total energy  :  -139.3679335 Eh     change       -0.2329382E-03 Eh
 * total energy  :  -139.3680694 Eh     change       -0.1359140E-03 Eh
 * total energy  :  -139.3681408 Eh     change       -0.7137746E-04 Eh
 * total energy  :  -139.3681886 Eh     change       -0.4776634E-04 Eh
 * total energy  :  -139.3682072 Eh     change       -0.1862998E-04 Eh
 * total energy  :  -139.3682225 Eh     change       -0.1528906E-04 Eh
 * total energy  :  -139.3682289 Eh     change       -0.6386315E-05 Eh
 * total energy  :  -139.3682337 Eh     change       -0.4826250E-05 Eh
   *** GEOMETRY OPTIMIZATION CONVERGED AFTER 41 ITERATIONS ***

 final structure:
================
78
 xtb: 6.4.1 (bd6e46d)
Fe        6.75625018972070   -0.05398106929695    0.02339827406954
C         9.23667459984331   -3.53320388984039    0.10356435351273
C        10.16067214699158   -2.54543370739495    0.14916894738437
C         9.44119306237528   -1.30477375419470    0.12076442095915
C        10.08563953699236   -0.06182929608501    0.13625806698834
C         9.44768223191651    1.18401431943962    0.09339661468334
C        10.17406481810628    2.42101197617663    0.08948943144333
C         9.25480443563812    3.41314360056539    0.04370263911968
C         7.97255086503647    2.77690007070453    0.02280029829331
N         8.10474452783425    1.41539344633050    0.04982411218538
C         6.76491542410646    3.44460975828279   -0.00633770194037
C         5.55494152225944    2.78131109738509   -0.01344372492826
C         4.27010541075677    3.41775321732709   -0.02795377779172
C         3.35196102307637    2.42544429294192   -0.03306706205600
C         4.07847255811340    1.18559313668575   -0.02449214121202
N         5.42451317963328    1.42233568625379   -0.00893775210131
C         3.45374761734664   -0.04601804667732   -0.04448107608316
C         4.07326062344806   -1.28046575805093   -0.05044719614258
C         3.34158735884255   -2.51643373035436   -0.08889802279655
C         4.25495236052571   -3.51312896434974   -0.08350962635619
C         5.54221049536430   -2.88314300614993   -0.03892273871321
N         5.41787092552823   -1.52365427282924   -0.02201465092673
C         6.74844085598165   -3.55250987879095   -0.00476714947741
C         7.95866205868628   -2.89078690636675    0.05054154242675
N         8.09764860292785   -1.52991186521768    0.06327023440022
H         9.38792678221498   -4.59500638678301    0.10548545133001
H        11.22910489850934   -2.62847944194966    0.19584392508512
H        11.24350454424156    2.49900143035367    0.11714837552175
H         9.41181911537819    4.47411029714206    0.02628152695942
H         6.76882119688211    4.52365021214624   -0.01902658437147
H         4.11519959036814    4.47943532870413   -0.03279117222650
H         2.28141105317395    2.50157747922403   -0.04332539714362
H         2.37318984571566   -0.04342651516787   -0.06279730414676
H         2.27122922703185   -2.58718090986279   -0.11675390443267
H         4.09540859667110   -4.57380918860783   -0.10571257913955
H         6.74694773042518   -4.63156553273954   -0.01656628148032
C        11.48533792680194   -0.06382196493026    0.18710676421455
C        12.70378470534127   -0.06247958273228    0.22728862000868
C        14.04084063432335   -0.05547063399044    0.25618648330530
C        15.26406551897357   -0.04160627508974    0.27107999205514
C        16.60138156504889   -0.02642877853748    0.26625019456072
C        17.82028742045413   -0.00942107573081    0.24601928793169
Fe       22.54116040008691    0.05501664699751   -0.05293050977021
C        20.01503998072841    3.49410165932889    0.17448340302740
C        19.10587503380523    2.49209869149977    0.20522022168441
C        19.84321260005136    1.26297062225364    0.14896888215467
C        19.21967453597020    0.01015330083048    0.19116226693669
C        19.87902495670698   -1.22513092292560    0.17755789254061
C        19.17820473034081   -2.47289036183886    0.27517597817911
C        20.11261248659855   -3.45044367629855    0.21886310363472
C        21.37740612538758   -2.79471798666955    0.08218865130633
N        21.22149697058127   -1.43551245543348    0.06819591550261
C        22.58909627004016   -3.44310725492542   -0.04573030639521
C        23.77932641695515   -2.76033416732781   -0.19174827668680
C        25.06468397307940   -3.37591703310793   -0.35055663737519
C        25.96121927637597   -2.36886910255325   -0.44993933216315
C        25.22166058215321   -1.14107073690840   -0.34824437897520
N        23.88806862516697   -1.39944113686465   -0.19719374318495
C        25.82681505504546    0.10002096942118   -0.38115419631435
C        25.19578227687358    1.32374186807385   -0.27171593709879
C        25.90981665087520    2.57051005229809   -0.28893200477795
C        24.98830343133436    3.55187642959682   -0.16463544137495
C        23.71326766717297    2.90200513888409   -0.07668909554281
N        23.85384113467019    1.54536309361351   -0.13740185359068
C        22.50112227847961    3.55221353495879    0.03257225988403
C        21.30154539002672    2.87183439001862    0.09194419955771
N        21.18228502016069    1.50912944818594    0.07564254522947
H        19.84861981241757    4.55342343689097    0.20175066283885
H        18.03691602048275    2.55811681718349    0.26491393899965
H        18.11429451923261   -2.56722987203411    0.37763589085756
H        19.97607996191061   -4.51349723821447    0.26218808270474
H        22.60370443711680   -4.52208235463572   -0.03878584302290
H        25.23400104980304   -4.43503591009827   -0.37941354964990
H        27.02507419871781   -2.42767631914397   -0.57762691331830
H        26.90141455188089    0.11470245943442   -0.49509287972147
H        26.97506572524402    2.65805881480051   -0.38313453318228
H        25.13446481180385    4.61433450411155   -0.13610502172065
H        22.48807026006947    4.63086573263919    0.06307584586420

          :  Hamiltonian                  GFN2-xTB          :
         :: gradient norm              0.000850113562 Eh/a0 ::
         :: HOMO-LUMO gap              0.194682470664 eV    ::
         :: SCC energy              -141.884391167103 Eh    ::
         :: -> dispersion             -0.105550489652 Eh    ::
         :: repulsion energy           2.517248457726 Eh    ::

    * Orbital Energies and Occupations

         #    Occupation            Energy/Eh            Energy/eV
      -------------------------------------------------------------
         1        2.0000           -0.6663963             -18.1336
       ...           ...                  ...                  ...
       119        2.0000           -0.3977063             -10.8221
       120        2.0000           -0.3885772             -10.5737
       121        2.0000           -0.3749532             -10.2030
       122        2.0000           -0.3657742              -9.9532
       123        2.0000           -0.3637690              -9.8987
       124        2.0000           -0.3637632              -9.8985
       125        2.0000           -0.3523018              -9.5866
       126        2.0000           -0.3392295              -9.2309
       127        2.0000           -0.3392238              -9.2308
       128        2.0000           -0.3372936              -9.1782
       129        2.0000           -0.3370782              -9.1724
       130        1.9556           -0.3288439              -8.9483
       131        1.9548           -0.3288279              -8.9479 (HOMO)
       132        0.0454           -0.3216736              -8.7532 (LUMO)
       133        0.0442           -0.3216487              -8.7525
       134                         -0.3011100              -8.1936
       135                         -0.2904410              -7.9033
       136                         -0.2904401              -7.9033
       137                         -0.2885926              -7.8530
       138                         -0.2606022              -7.0913
       139                         -0.2521243              -6.8607
       140                         -0.2473812              -6.7316
       141                         -0.2218412              -6.0366
       142                         -0.2204171              -5.9979
       ...                                ...                  ...
       256                          1.7212836              46.8385
      -------------------------------------------------------------
                  HL-Gap            0.0071544 Eh            0.1947 eV

     #   Z          covCN         q      C6AA      α(0)
     1  26 Fe       3.081     0.560     5.147     7.319
     2   6 C        3.016    -0.056    29.367     8.889
     3   6 C        3.024    -0.053    29.283     8.876
     4   6 C        3.176     0.066    26.136     8.348
     5   6 C        2.955     0.008    27.841     8.654
     6   6 C        3.176     0.066    26.135     8.348
     7   6 C        3.024    -0.053    29.284     8.877
     8   6 C        3.016    -0.056    29.367     8.889
     9   6 C        3.169     0.069    26.110     8.348
    10   7 N        2.636    -0.215    25.687     7.527
    11   6 C        2.903    -0.057    29.427     8.895
    12   6 C        3.166     0.070    26.101     8.349
    13   6 C        3.013    -0.055    29.346     8.886
    14   6 C        3.024    -0.054    29.302     8.879
    15   6 C        3.155     0.066    26.237     8.376
    16   7 N        2.639    -0.213    25.641     7.521
    17   6 C        2.903    -0.062    29.536     8.911
    18   6 C        3.155     0.066    26.236     8.376
    19   6 C        3.024    -0.054    29.302     8.879
    20   6 C        3.013    -0.055    29.346     8.886
    21   6 C        3.166     0.070    26.101     8.349
    22   7 N        2.639    -0.213    25.641     7.520
    23   6 C        2.903    -0.057    29.428     8.895
    24   6 C        3.169     0.069    26.109     8.348
    25   7 N        2.636    -0.215    25.688     7.527
    26   1 H        0.926     0.031     2.577     2.510
    27   1 H        0.926     0.034     2.537     2.491
    28   1 H        0.926     0.034     2.536     2.490
    29   1 H        0.926     0.031     2.577     2.510
    30   1 H        0.926     0.048     2.346     2.395
    31   1 H        0.926     0.031     2.572     2.508
    32   1 H        0.926     0.030     2.580     2.512
    33   1 H        0.926     0.048     2.339     2.392
    34   1 H        0.926     0.030     2.579     2.511
    35   1 H        0.926     0.031     2.572     2.508
    36   1 H        0.926     0.048     2.346     2.395
    37   6 C        2.000    -0.020    31.580     9.075
    38   6 C        1.963    -0.014    31.437     9.055
    39   6 C        1.964    -0.005    31.200     9.020
    40   6 C        1.964    -0.005    31.200     9.020
    41   6 C        1.963    -0.014    31.436     9.054
    42   6 C        2.000    -0.020    31.582     9.076
    43  26 Fe       3.082     0.560     5.147     7.319
    44   6 C        3.016    -0.056    29.367     8.889
    45   6 C        3.024    -0.053    29.284     8.876
    46   6 C        3.176     0.066    26.135     8.348
    47   6 C        2.955     0.008    27.841     8.654
    48   6 C        3.176     0.066    26.134     8.348
    49   6 C        3.024    -0.053    29.284     8.876
    50   6 C        3.016    -0.056    29.367     8.889
    51   6 C        3.169     0.069    26.108     8.348
    52   7 N        2.636    -0.215    25.688     7.527
    53   6 C        2.903    -0.057    29.427     8.895
    54   6 C        3.166     0.070    26.103     8.349
    55   6 C        3.013    -0.055    29.347     8.886
    56   6 C        3.024    -0.054    29.302     8.879
    57   6 C        3.155     0.066    26.237     8.376
    58   7 N        2.639    -0.213    25.640     7.520
    59   6 C        2.903    -0.062    29.537     8.911
    60   6 C        3.155     0.066    26.237     8.376
    61   6 C        3.024    -0.054    29.302     8.879
    62   6 C        3.013    -0.055    29.346     8.886
    63   6 C        3.166     0.070    26.101     8.349
    64   7 N        2.639    -0.213    25.641     7.521
    65   6 C        2.903    -0.057    29.428     8.895
    66   6 C        3.169     0.069    26.110     8.349
    67   7 N        2.636    -0.215    25.688     7.527
    68   1 H        0.926     0.031     2.577     2.510
    69   1 H        0.926     0.034     2.536     2.490
    70   1 H        0.926     0.033     2.537     2.491
    71   1 H        0.926     0.031     2.577     2.510
    72   1 H        0.926     0.048     2.346     2.395
    73   1 H        0.926     0.031     2.572     2.508
    74   1 H        0.926     0.030     2.579     2.511
    75   1 H        0.926     0.048     2.339     2.392
    76   1 H        0.926     0.031     2.579     2.511
    77   1 H        0.926     0.031     2.572     2.508
    78   1 H        0.926     0.048     2.346     2.395

Wiberg/Mayer (AO) data.
largest (>0.10) Wiberg bond orders for each atom

     #   Z sym  total        # sym  WBO       # sym  WBO       # sym  WBO
 ---------------------------------------------------------------------------
     1  26 Fe   3.267 --    22 N    0.660    16 N    0.660    10 N    0.653
                            25 N    0.653
     2   6 C    3.957 --     3 C    1.645    24 C    1.172    26 H    0.972
     3   6 C    3.961 --     2 C    1.645     4 C    1.180    27 H    0.970
     4   6 C    3.921 --     5 C    1.261    25 N    1.248     3 C    1.180
     5   6 C    3.951 --     4 C    1.261     6 C    1.260    37 C    1.176
     6   6 C    3.921 --     5 C    1.260    10 N    1.248     7 C    1.180
     7   6 C    3.961 --     8 C    1.646     6 C    1.180    28 H    0.970
     8   6 C    3.957 --     7 C    1.646     9 C    1.172    29 H    0.972
     9   6 C    3.938 --    11 C    1.360    10 N    1.226     8 C    1.172
    10   7 N    3.413 --     6 C    1.248     9 C    1.226     1 Fe   0.653
    11   6 C    3.942 --     9 C    1.360    12 C    1.359    30 H    0.965
    12   6 C    3.942 --    11 C    1.359    16 N    1.235    13 C    1.165
    13   6 C    3.962 --    14 C    1.660    12 C    1.165    31 H    0.972
    14   6 C    3.960 --    13 C    1.660    15 C    1.162    32 H    0.972
    15   6 C    3.943 --    17 C    1.360    16 N    1.229    14 C    1.162
    16   7 N    3.411 --    12 C    1.235    15 C    1.229     1 Fe   0.660
    17   6 C    3.941 --    15 C    1.360    18 C    1.360    33 H    0.963
    18   6 C    3.943 --    17 C    1.360    22 N    1.229    19 C    1.162
    19   6 C    3.960 --    20 C    1.660    18 C    1.162    34 H    0.972
    20   6 C    3.962 --    19 C    1.660    21 C    1.165    35 H    0.972
    21   6 C    3.942 --    23 C    1.359    22 N    1.235    20 C    1.165
    22   7 N    3.411 --    21 C    1.235    18 C    1.229     1 Fe   0.660
    23   6 C    3.942 --    21 C    1.359    24 C    1.359    36 H    0.965
    24   6 C    3.938 --    23 C    1.359    25 N    1.226     2 C    1.172
    25   7 N    3.413 --     4 C    1.248    24 C    1.226     1 Fe   0.653
    26   1 H    0.998 --     2 C    0.972
    27   1 H    0.998 --     3 C    0.970
    28   1 H    0.998 --     7 C    0.970
    29   1 H    0.998 --     8 C    0.972
    30   1 H    0.997 --    11 C    0.965
    31   1 H    0.998 --    13 C    0.972
    32   1 H    0.998 --    14 C    0.972
    33   1 H    0.996 --    17 C    0.963
    34   1 H    0.998 --    19 C    0.972
    35   1 H    0.998 --    20 C    0.972
    36   1 H    0.997 --    23 C    0.965
    37   6 C    3.885 --    38 C    2.455     5 C    1.176    40 C    0.194
    38   6 C    3.933 --    37 C    2.455    39 C    1.325
    39   6 C    3.923 --    40 C    2.368    38 C    1.325    42 C    0.194
    40   6 C    3.923 --    39 C    2.368    41 C    1.325    37 C    0.194
    41   6 C    3.933 --    42 C    2.454    40 C    1.325
    42   6 C    3.885 --    41 C    2.454    47 C    1.176    39 C    0.194
    43  26 Fe   3.269 --    58 N    0.661    64 N    0.660    67 N    0.653
                            52 N    0.653
    44   6 C    3.957 --    45 C    1.645    66 C    1.172    68 H    0.972
    45   6 C    3.961 --    44 C    1.645    46 C    1.180    69 H    0.970
    46   6 C    3.921 --    47 C    1.261    67 N    1.248    45 C    1.180
    47   6 C    3.951 --    46 C    1.261    48 C    1.260    42 C    1.176
    48   6 C    3.921 --    47 C    1.260    52 N    1.248    49 C    1.180
    49   6 C    3.961 --    50 C    1.645    48 C    1.180    70 H    0.970
    50   6 C    3.957 --    49 C    1.645    51 C    1.173    71 H    0.972
    51   6 C    3.938 --    53 C    1.359    52 N    1.226    50 C    1.173
    52   7 N    3.413 --    48 C    1.248    51 C    1.226    43 Fe   0.653
    53   6 C    3.942 --    51 C    1.359    54 C    1.359    72 H    0.965
    54   6 C    3.942 --    53 C    1.359    58 N    1.235    55 C    1.165
    55   6 C    3.962 --    56 C    1.660    54 C    1.165    73 H    0.972
    56   6 C    3.960 --    55 C    1.660    57 C    1.162    74 H    0.972
    57   6 C    3.943 --    59 C    1.360    58 N    1.229    56 C    1.162
    58   7 N    3.411 --    54 C    1.235    57 C    1.229    43 Fe   0.661
    59   6 C    3.941 --    57 C    1.360    60 C    1.360    75 H    0.963
    60   6 C    3.943 --    59 C    1.360    64 N    1.229    61 C    1.162
    61   6 C    3.960 --    62 C    1.660    60 C    1.162    76 H    0.972
    62   6 C    3.962 --    61 C    1.660    63 C    1.165    77 H    0.972
    63   6 C    3.942 --    65 C    1.359    64 N    1.235    62 C    1.165
    64   7 N    3.411 --    63 C    1.235    60 C    1.229    43 Fe   0.660
    65   6 C    3.942 --    63 C    1.359    66 C    1.359    78 H    0.965
    66   6 C    3.938 --    65 C    1.359    67 N    1.226    44 C    1.172
    67   7 N    3.413 --    46 C    1.248    66 C    1.226    43 Fe   0.653
    68   1 H    0.998 --    44 C    0.972
    69   1 H    0.998 --    45 C    0.970
    70   1 H    0.998 --    49 C    0.970
    71   1 H    0.998 --    50 C    0.972
    72   1 H    0.997 --    53 C    0.965
    73   1 H    0.998 --    55 C    0.972
    74   1 H    0.998 --    56 C    0.972
    75   1 H    0.996 --    59 C    0.963
    76   1 H    0.998 --    61 C    0.972
    77   1 H    0.998 --    62 C    0.972
    78   1 H    0.997 --    65 C    0.965
 ---------------------------------------------------------------------------

molecular dipole:
                 x           y           z       tot (Debye)
 q only:        0.002       0.006      -0.032
   full:        0.000       0.007      -0.048       0.125

 projected vibrational frequencies (cm⁻¹)
eigval :       -0.00    -0.00    -0.00    -0.00     0.00     0.00
eigval :       -1.80     6.22     6.33    13.51    24.35    28.80
eigval :       29.14    29.38    49.80    69.37    75.00    93.02
eigval :       93.87    95.76   113.27   121.47   121.48   138.05
eigval :      150.73   174.87   183.74   184.16   188.28   206.97
eigval :      213.06   219.99   220.46   221.03   222.78   224.27
eigval :      228.26   234.14   244.83   244.94   257.14   257.32
eigval :      278.88   279.05   283.43   299.33   302.75   319.32
eigval :      321.52   324.94   326.00   345.17   350.02   350.98
eigval :      353.89   356.74   374.75   382.70   383.78   384.39
eigval :      385.12   393.16   393.25   393.59   417.97   418.30
eigval :      427.22   427.33   433.63   433.96   458.78   459.00
eigval :      468.88   508.46   509.13   618.01   618.22   622.91
eigval :      622.99   625.99   626.00   638.74   638.81   643.47
eigval :      643.54   658.14   658.17   663.26   663.36   666.01
eigval :      666.21   702.62   717.42   720.50   721.98   722.01
eigval :      758.61   758.82   762.07   768.62   779.03   779.06
eigval :      779.58   780.83   795.89   796.32   798.47   798.54
eigval :      803.45   803.57   809.81   810.05   816.06   816.15
eigval :      827.00   827.14   831.32   831.41   837.08   837.18
eigval :      840.51   840.55   842.29   842.69   843.20   843.33
eigval :      843.67   843.82   895.49   951.75   981.13   981.43
eigval :     1002.06  1002.15  1008.94  1017.04  1017.19  1018.04
eigval :     1024.46  1024.59  1031.76  1031.91  1039.91  1040.11
eigval :     1066.29  1066.41  1069.15  1069.73  1071.08  1071.39
eigval :     1072.90  1073.10  1074.90  1134.03  1146.24  1147.16
eigval :     1147.18  1171.19  1176.57  1176.68  1178.67  1231.37
eigval :     1231.52  1236.79  1237.11  1258.51  1281.81  1281.86
eigval :     1301.68  1308.05  1308.10  1308.21  1312.88  1312.94
eigval :     1325.60  1326.86  1327.00  1330.79  1332.65  1332.84
eigval :     1348.26  1351.01  1360.58  1360.66  1423.04  1453.49
eigval :     1470.84  1471.04  1472.52  1477.05  1490.90  1494.79
eigval :     1494.88  1508.11  1508.95  1523.74  1526.30  1529.89
eigval :     1530.02  1542.84  1542.88  1555.22  1555.66  1571.85
eigval :     1571.90  1580.29  1580.78  1604.87  1604.92  2171.78
eigval :     2208.47  2269.10  3079.84  3079.93  3095.42  3095.81
eigval :     3095.86  3096.12  3145.34  3146.54  3147.36  3147.81
eigval :     3151.88  3153.20  3153.27  3154.07  3159.95  3160.67
eigval :     3161.53  3161.97  3165.55  3167.55  3167.86  3168.13

   temp. (K)  partition function   enthalpy   heat capacity  entropy
                                   cal/mol     cal/K/mol   cal/K/mol   J/K/mol
 298.15  VIB  0.185E+22            26298.672    172.982    163.816
         ROT  0.241E+09              888.752      2.981     41.337
         INT  0.447E+30            27187.424    175.963    205.153
         TR   0.218E+29             1481.254      4.968     45.890
         TOT                       28668.6782   180.9314   251.0431  1050.3644

       T/K    H(0)-H(T)+PV         H(T)/Eh          T*S/Eh         G(T)/Eh
   ------------------------------------------------------------------------
    298.15    0.456864E-01    0.583601E+00    0.119279E+00    0.464322E+00
   ------------------------------------------------------------------------

         :::::::::::::::::::::::::::::::::::::::::::::::::::::
         ::                  THERMODYNAMIC                  ::
         :::::::::::::::::::::::::::::::::::::::::::::::::::::
         :: total free energy        -138.903911762669 Eh   ::
         ::.................................................::
         :: total energy             -139.368233680726 Eh   ::
         :: zero point energy           0.537914156651 Eh   ::
         :: G(RRHO) w/o ZPVE           -0.073592238593 Eh   ::
         :: G(RRHO) contrib.            0.464321918057 Eh   ::
         :::::::::::::::::::::::::::::::::::::::::::::::::::::

           -------------------------------------------------
          | TOTAL ENERGY             -139.368233680726 Eh   |
          | TOTAL ENTHALPY           -138.784633077366 Eh   |
          | TOTAL FREE ENERGY        -138.903911762669 Eh   |
          | GRADIENT NORM               0.000850413256 Eh/α |
          | HOMO-LUMO GAP               0.194679869064 eV   |
           -------------------------------------------------

 * finished run on 2021/11/19 at 10:49:12.732
