   * xtb version 6.4.1 (bd6e46d) compiled by 'conda@4901f00b25ba' on 2021-06-10
          program call               : /home/jeff/miniconda3/bin/xtb input_structure_1.xyz --gfn 2 --ohess normal --parallel 1 --etemp 300 --chrg 0 --uhf 0 -I det_control.in
          number of atoms            :                   122
          number of electrons        :                   386
          charge                     :                     0
          spin                       :                   0.0

   ID    Z sym.   atoms
    1    6 C      1-8, 10-14, 16-20, 22, 23, 38-45, 47-51, 53-57, 59, 60,
                  75-94, 96-100, 102-106, 108, 109
    2    7 N      9, 15, 21, 24, 46, 52, 58, 61, 95, 101, 107, 110
    3    1 H      25-37, 62-74, 111-122

          :  Hamiltonian                  GFN2-xTB          :
 * total energy  :  -207.3306531 Eh     change       -0.3024829E-07 Eh
 * total energy  :  -207.5619294 Eh     change       -0.2312763E+00 Eh
 * total energy  :  -207.6494878 Eh     change       -0.8755848E-01 Eh
 * total energy  :  -207.6927571 Eh     change       -0.4326928E-01 Eh
 * total energy  :  -207.7262834 Eh     change       -0.3352625E-01 Eh
 * total energy  :  -207.7603302 Eh     change       -0.3404679E-01 Eh
 * total energy  :  -207.7993943 Eh     change       -0.3906417E-01 Eh
 * total energy  :  -207.8425805 Eh     change       -0.4318618E-01 Eh
 * total energy  :  -207.8923195 Eh     change       -0.4973898E-01 Eh
 * total energy  :  -207.9474367 Eh     change       -0.5511723E-01 Eh
 * total energy  :  -208.2781754 Eh     change       -0.1147584E-03 Eh
 * total energy  :  -208.2781877 Eh     change       -0.1229391E-04 Eh
 * total energy  :  -208.2782126 Eh     change       -0.2493913E-04 Eh
 * total energy  :  -208.2782506 Eh     change       -0.3800061E-04 Eh
 * total energy  :  -208.2782700 Eh     change       -0.1938747E-04 Eh
 * total energy  :  -208.2782870 Eh     change       -0.1702534E-04 Eh
 * total energy  :  -208.2782933 Eh     change       -0.6301152E-05 Eh
 * total energy  :  -208.2782994 Eh     change       -0.6027029E-05 Eh
 * total energy  :  -208.2783039 Eh     change       -0.4591295E-05 Eh
   *** GEOMETRY OPTIMIZATION CONVERGED AFTER 56 ITERATIONS ***

 final structure:
================
122
 xtb: 6.4.1 (bd6e46d)
C        15.77093105651442    3.40546304748881    0.31671851187849
C        16.72841139506147    2.45878070404923    0.26861747838443
C        16.03043715846569    1.19231362331849    0.13733862751050
C        16.69350529493580   -0.04907125898356    0.05764911485577
C        16.04218075580194   -1.28902895541530   -0.05194374165817
C        16.64347783286972   -2.57407948431594   -0.12098904446539
C        15.63821955191261   -3.49219338076429   -0.22334794209347
C        14.40174316905884   -2.78723261391997   -0.22104721017722
N        14.69839141794047   -1.46229320766644   -0.11320268434701
C        13.13433985910716   -3.34248073964240   -0.31832815212961
C        11.91835917023607   -2.67318293567206   -0.32671443719464
C        10.64222645388436   -3.36399280451497   -0.44548214584991
C         9.69401532346041   -2.40932560487333   -0.41879353900233
C        10.39800971143311   -1.14359039138605   -0.28286104544230
N        11.73250309525711   -1.34041120560028   -0.23192677717534
C         9.75272328218285    0.08481905028442   -0.21628343286647
C        10.37851129954572    1.31518721955384   -0.08733836156513
C         9.77561350269336    2.60348792463983   -0.01425912680304
C        10.77655709941705    3.52130582096903    0.10763294046772
C        12.01659124206314    2.81807900958297    0.11172134269926
N        11.72385963811417    1.49648505658764   -0.00750856361390
C        13.28394861700553    3.37215991386341    0.21472670933249
C        14.50098168758447    2.70712365769697    0.21084699458130
N        14.69953708053160    1.37098482706380    0.10681523430043
H        15.87707719529951    4.46909651043315    0.41164488078468
H        17.79457032061944    2.56857034000772    0.31594356292280
H        17.70016562481859   -2.75662778257427   -0.09398853313928
H        15.73359119011128   -4.55814888735782   -0.29492345561997
H        14.02817687149971   -0.70255748322935   -0.08509857899711
H        13.09214355783948   -4.41981665079799   -0.40085439761977
H        10.53021983777250   -4.42754003428204   -0.53574038186863
H         8.62744694527354   -2.51102802345080   -0.48151316830459
H         8.67361034065360    0.08155288465816   -0.26911186191391
H         8.71950297861284    2.78792482814564   -0.05148842592672
H        10.67978442443067    4.58681230151953    0.18695426838727
H        12.39142605347697    0.73511580844044   -0.03577521475706
H        13.32733665999111    4.44891527961478    0.30480856318472
C        42.90355270205417   -3.39789423718253    0.41668996993044
C        41.94567251697175   -2.45202935311541    0.36155588273973
C        42.64283085741219   -1.18717277806918    0.21184352265446
C        41.97917403604472    0.05308991903545    0.11995820375385
C        42.63010138404100    1.29160483690101   -0.00784919061294
C        42.02845446679164    2.57601730565901   -0.08628818637778
C        43.03327944361762    3.49306598810683   -0.20100446339675
C        44.26976381980311    2.78811475290655   -0.19762697924376
N        43.97352569154684    1.46420162586925   -0.07671843304617
C        45.53666080038683    3.34244576332492   -0.30571245526616
C        46.75253791832091    2.67298376631003   -0.31626516318389
C        48.02793554746631    3.36242525378205   -0.44944642552028
C        48.97595741766834    2.40751861806713   -0.42366562159156
C        48.27261706784518    1.14310992651375   -0.27275128031934
N        46.93866413972843    1.34087022387008   -0.21273450264816
C        48.91801077286932   -0.08492053011014   -0.20033633380285
C        48.29303198571793   -1.31350373425766   -0.05176623466266
C        48.89632962507253   -2.60093249174305    0.03311058565218
C        47.89640814366478   -3.51677312965768    0.17655646666858
C        46.65660284888317   -2.81326562113859    0.18174444900430
N        46.94840457816719   -1.49339920001122    0.04215436016129
C        45.38996681739960   -3.36568165222025    0.30163706251607
C        44.17288598681612   -2.70078440584175    0.29623125651795
N        43.97351389185687   -1.36607571694314    0.17636046123611
H        42.79810557286209   -4.46029238535294    0.52483021700782
H        40.87975180738595   -2.56137817660676    0.41485695308618
H        40.97193021158016    2.75883017927532   -0.05642079425999
H        42.93770072859406    4.55830633976300   -0.28140896501205
H        44.64396807812162    0.70485544529177   -0.04404959233554
H        45.57836329979116    4.41909422044122   -0.39683799509935
H        48.13957823471068    4.42531232455050   -0.54784491496193
H        50.04201337494256    2.50830801964609   -0.49544381495140
H        49.99659944487307   -0.08271785707523   -0.26307102363132
H        49.95204353879291   -2.78598605292087   -0.01099444369876
H        47.99372511501999   -4.58112437513005    0.26981262657432
H        46.28047616513581   -0.73250404802520    0.00991041822897
H        45.34719272071580   -4.44112882181901    0.40653959145799
C        18.08903280376657   -0.05171881288941    0.08191236358799
C        19.30953798382947   -0.04252542340614    0.08822211611790
C        20.64492530719833   -0.03048734820813    0.08723764211649
C        21.86965820217081   -0.01361628158007    0.07486784470338
C        23.20475087915185    0.00161097999434    0.06218083032653
C        24.42534013192475    0.01709570681838    0.04698357939816
C        34.24755838561245   -0.00278766613150    0.14629111904814
C        35.46814466405440    0.01263082325090    0.16185134884001
C        36.80321948520269    0.02722408400522    0.17188136968754
C        38.02808394710243    0.04146920278115    0.17464492537772
C        39.36342588734890    0.05094811685805    0.16614223380156
C        40.58388002514364    0.05687383765708    0.15243689388989
C        26.80299477620163   -3.39282473246217    0.47698113337827
C        25.82705108426361   -2.47164040997494    0.35627085592820
C        26.50117511907936   -1.19624444723187    0.19893210503250
C        25.81964069587952    0.02750802370744    0.03903884631625
C        26.46726288911772    1.26347051484775   -0.12997765707167
C        25.87139364240408    2.53774338667402   -0.31775618976261
C        26.88343652132276    3.44635817350240   -0.44430149427230
C        28.11677361245412    2.74564917697129   -0.33397935521948
N        27.81284646373386    1.43179027591094   -0.14644432113601
C        29.38532980767543    3.30582853126029   -0.40004105087561
C        30.61287610360975    2.67262212144732   -0.29036135237051
C        31.87038712963811    3.39684271684061   -0.36902518704103
C        32.84608954906830    2.47943168782009   -0.22060827281782
C        32.17206093563751    1.20504615377383   -0.05533848403901
N        30.83745969311467    1.34987565162288   -0.10052913462293
C        32.85346698681408   -0.01613145172073    0.12393795625490
C        32.20581797138609   -1.25421227507548    0.27675563925819
C        32.80163177046251   -2.52968840850893    0.45703790448373
C        31.78985493586264   -3.44187662788473    0.55673431786943
C        30.55658440035713   -2.74176170679520    0.44028623550178
N        30.86044467280356   -1.42515839812625    0.27297317659021
C        29.28836383501410   -3.30409377694226    0.49160120889438
C        28.06060068841073   -2.66916910476337    0.39513477869308
N        27.83595909994776   -1.34371557544438    0.22542715306774
H        26.71683122750058   -4.45420761077070    0.60921133371439
H        24.76249518678214   -2.60430277872331    0.36629563122953
H        24.81503298141973    2.72051845589189   -0.35135158935010
H        26.79368785421988    4.50386464817950   -0.59955169800207
H        28.46695847988648    0.66510065503166   -0.03286846940421
H        29.41642103301997    4.37614663192694   -0.55363048962679
H        31.95655839823214    4.45629132712312   -0.51596612582482
H        33.91048729745494    2.61379479942776   -0.21870515768802
H        33.85781786619944   -2.71129190970533    0.50228635626425
H        31.87967690022138   -4.50132026042427    0.69861221200938
H        30.20683883486781   -0.65812024559328    0.15816967659932
H        29.25770640400686   -4.37664373636638    0.62880102027961

          :  Hamiltonian                  GFN2-xTB          :
         :: gradient norm              0.000426040111 Eh/a0 ::
         :: HOMO-LUMO gap              0.923140126594 eV    ::
         :: SCC energy              -212.331787546670 Eh    ::
         :: -> dispersion             -0.166468984226 Eh    ::
         :: repulsion energy           4.055840914016 Eh    ::

    * Orbital Energies and Occupations

         #    Occupation            Energy/Eh            Energy/eV
      -------------------------------------------------------------
         1        2.0000           -0.6851776             -18.6446
       ...           ...                  ...                  ...
       181        2.0000           -0.3788244             -10.3083
       182        2.0000           -0.3739953             -10.1769
       183        2.0000           -0.3736014             -10.1662
       184        2.0000           -0.3725034             -10.1363
       185        2.0000           -0.3724992             -10.1362
       186        2.0000           -0.3716165             -10.1122
       187        2.0000           -0.3716157             -10.1122
       188        2.0000           -0.3702625             -10.0754
       189        2.0000           -0.3691127             -10.0441
       190        2.0000           -0.3690454             -10.0422
       191        2.0000           -0.3624487              -9.8627
       192        2.0000           -0.3553864              -9.6706
       193        2.0000           -0.3471163              -9.4455 (HOMO)
       194                         -0.3131915              -8.5224 (LUMO)
       195                         -0.3038142              -8.2672
       196                         -0.2991487              -8.1402
       197                         -0.2982949              -8.1170
       198                         -0.2978030              -8.1036
       199                         -0.2960693              -8.0565
       200                         -0.2717056              -7.3935
       201                         -0.2617389              -7.1223
       202                         -0.2581163              -7.0237
       203                         -0.2518162              -6.8523
       204                         -0.2511408              -6.8339
       ...                                ...                  ...
       374                          1.7161369              46.6985
      -------------------------------------------------------------
                  HL-Gap            0.0339248 Eh            0.9231 eV

     #   Z          covCN         q      C6AA      α(0)
     1   6 C        3.016    -0.055    29.335     8.884
     2   6 C        3.009    -0.053    29.300     8.879
     3   6 C        3.196     0.087    25.562     8.242
     4   6 C        2.952     0.011    27.761     8.642
     5   6 C        3.097     0.064    26.450     8.429
     6   6 C        3.026    -0.050    29.211     8.865
     7   6 C        3.034    -0.052    29.250     8.871
     8   6 C        3.073     0.064    26.485     8.438
     9   7 N        2.785    -0.081    22.819     7.095
    10   6 C        2.899    -0.055    29.364     8.885
    11   6 C        3.170     0.087    25.717     8.285
    12   6 C        3.012    -0.054    29.314     8.881
    13   6 C        3.009    -0.054    29.316     8.882
    14   6 C        3.174     0.086    25.706     8.281
    15   7 N        1.870    -0.321    29.171     8.006
    16   6 C        2.899    -0.057    29.407     8.891
    17   6 C        3.074     0.065    26.469     8.435
    18   6 C        3.025    -0.051    29.238     8.870
    19   6 C        3.031    -0.051    29.230     8.868
    20   6 C        3.068     0.066    26.460     8.435
    21   7 N        2.787    -0.081    22.812     7.094
    22   6 C        2.899    -0.055    29.363     8.885
    23   6 C        3.175     0.086    25.719     8.282
    24   7 N        1.870    -0.325    29.279     8.021
    25   1 H        0.926     0.019     2.753     2.595
    26   1 H        0.926     0.021     2.715     2.576
    27   1 H        0.926     0.043     2.405     2.425
    28   1 H        0.926     0.041     2.429     2.437
    29   1 H        0.860     0.214     1.037     1.595
    30   1 H        0.925     0.047     2.357     2.401
    31   1 H        0.926     0.020     2.740     2.588
    32   1 H        0.926     0.020     2.739     2.588
    33   1 H        0.926     0.046     2.367     2.406
    34   1 H        0.926     0.042     2.422     2.434
    35   1 H        0.926     0.042     2.423     2.434
    36   1 H        0.860     0.214     1.035     1.594
    37   1 H        0.925     0.047     2.356     2.400
    38   6 C        3.016    -0.055    29.335     8.884
    39   6 C        3.009    -0.053    29.300     8.879
    40   6 C        3.196     0.087    25.561     8.242
    41   6 C        2.952     0.011    27.761     8.642
    42   6 C        3.097     0.064    26.449     8.428
    43   6 C        3.026    -0.050    29.212     8.865
    44   6 C        3.034    -0.052    29.250     8.871
    45   6 C        3.073     0.064    26.485     8.438
    46   7 N        2.785    -0.081    22.818     7.095
    47   6 C        2.899    -0.055    29.363     8.885
    48   6 C        3.170     0.087    25.717     8.285
    49   6 C        3.012    -0.054    29.314     8.881
    50   6 C        3.009    -0.054    29.316     8.882
    51   6 C        3.174     0.086    25.706     8.281
    52   7 N        1.870    -0.321    29.171     8.006
    53   6 C        2.899    -0.057    29.406     8.891
    54   6 C        3.074     0.065    26.469     8.435
    55   6 C        3.025    -0.051    29.238     8.869
    56   6 C        3.031    -0.051    29.230     8.868
    57   6 C        3.069     0.066    26.460     8.435
    58   7 N        2.787    -0.081    22.812     7.094
    59   6 C        2.899    -0.055    29.363     8.885
    60   6 C        3.175     0.086    25.720     8.282
    61   7 N        1.870    -0.325    29.279     8.021
    62   1 H        0.926     0.019     2.753     2.595
    63   1 H        0.926     0.021     2.715     2.576
    64   1 H        0.926     0.043     2.404     2.425
    65   1 H        0.926     0.041     2.429     2.437
    66   1 H        0.860     0.214     1.037     1.595
    67   1 H        0.925     0.047     2.357     2.401
    68   1 H        0.926     0.020     2.740     2.588
    69   1 H        0.926     0.020     2.739     2.588
    70   1 H        0.926     0.046     2.367     2.406
    71   1 H        0.926     0.042     2.422     2.434
    72   1 H        0.926     0.042     2.423     2.434
    73   1 H        0.860     0.214     1.035     1.594
    74   1 H        0.925     0.047     2.356     2.400
    75   6 C        1.996    -0.020    31.583     9.076
    76   6 C        1.963    -0.012    31.387     9.047
    77   6 C        1.965    -0.003    31.154     9.014
    78   6 C        1.965    -0.004    31.169     9.016
    79   6 C        1.963    -0.011    31.366     9.044
    80   6 C        1.994    -0.021    31.601     9.078
    81   6 C        1.994    -0.021    31.602     9.078
    82   6 C        1.963    -0.011    31.367     9.044
    83   6 C        1.965    -0.004    31.170     9.016
    84   6 C        1.965    -0.003    31.155     9.014
    85   6 C        1.963    -0.012    31.387     9.047
    86   6 C        1.996    -0.020    31.584     9.076
    87   6 C        3.018    -0.054    29.329     8.884
    88   6 C        3.008    -0.053    29.298     8.879
    89   6 C        3.197     0.087    25.561     8.242
    90   6 C        2.952     0.012    27.754     8.641
    91   6 C        3.100     0.064    26.454     8.429
    92   6 C        3.025    -0.050    29.219     8.867
    93   6 C        3.037    -0.052    29.248     8.870
    94   6 C        3.073     0.064    26.491     8.439
    95   7 N        2.786    -0.081    22.823     7.095
    96   6 C        2.899    -0.053    29.309     8.877
    97   6 C        3.173     0.085    25.733     8.285
    98   6 C        3.018    -0.054    29.329     8.884
    99   6 C        3.008    -0.053    29.297     8.879
   100   6 C        3.197     0.087    25.562     8.242
   101   7 N        1.870    -0.324    29.258     8.018
   102   6 C        2.952     0.012    27.754     8.641
   103   6 C        3.100     0.064    26.455     8.429
   104   6 C        3.025    -0.050    29.219     8.867
   105   6 C        3.037    -0.052    29.248     8.871
   106   6 C        3.072     0.064    26.491     8.439
   107   7 N        2.785    -0.081    22.823     7.095
   108   6 C        2.899    -0.053    29.309     8.877
   109   6 C        3.174     0.085    25.732     8.285
   110   7 N        1.870    -0.324    29.257     8.018
   111   1 H        0.926     0.019     2.751     2.594
   112   1 H        0.926     0.021     2.714     2.576
   113   1 H        0.926     0.043     2.408     2.426
   114   1 H        0.926     0.041     2.431     2.438
   115   1 H        0.860     0.214     1.035     1.594
   116   1 H        0.925     0.048     2.347     2.396
   117   1 H        0.926     0.019     2.751     2.594
   118   1 H        0.926     0.021     2.714     2.576
   119   1 H        0.926     0.043     2.408     2.426
   120   1 H        0.926     0.041     2.431     2.438
   121   1 H        0.860     0.214     1.035     1.594
   122   1 H        0.925     0.048     2.347     2.396

Wiberg/Mayer (AO) data.
largest (>0.10) Wiberg bond orders for each atom

     #   Z sym  total        # sym  WBO       # sym  WBO       # sym  WBO
 ---------------------------------------------------------------------------
     1   6 C    3.960 --     2 C    1.716    23 C    1.115    25 H    0.973
     2   6 C    3.961 --     1 C    1.716     3 C    1.122    26 H    0.971
     3   6 C    3.915 --    24 N    1.362     4 C    1.242     2 C    1.122
     4   6 C    3.940 --     5 C    1.247     3 C    1.242    75 C    1.194
     5   6 C    3.901 --     4 C    1.247     6 C    1.238     9 N    1.226
     6   6 C    3.955 --     7 C    1.592     5 C    1.238    27 H    0.972
     7   6 C    3.948 --     6 C    1.592     8 C    1.224    28 H    0.973
     8   6 C    3.918 --    10 C    1.344     7 C    1.224     9 N    1.202
     9   7 N    3.590 --     5 C    1.226     8 C    1.202    29 H    0.900
    10   6 C    3.921 --    11 C    1.357     8 C    1.344    30 H    0.964
    11   6 C    3.939 --    10 C    1.357    15 N    1.324    12 C    1.107
    12   6 C    3.963 --    13 C    1.731    11 C    1.107    31 H    0.973
    13   6 C    3.962 --    12 C    1.731    14 C    1.109    32 H    0.973
    14   6 C    3.938 --    16 C    1.354    15 N    1.325    13 C    1.109
    15   7 N    3.001 --    14 C    1.325    11 C    1.324
    16   6 C    3.922 --    14 C    1.354    17 C    1.347    33 H    0.965
    17   6 C    3.921 --    16 C    1.347    18 C    1.216    21 N    1.210
    18   6 C    3.949 --    19 C    1.608    17 C    1.216    34 H    0.973
    19   6 C    3.953 --    18 C    1.608    20 C    1.215    35 H    0.973
    20   6 C    3.916 --    22 C    1.342    19 C    1.215    21 N    1.211
    21   7 N    3.586 --    20 C    1.211    17 C    1.210    36 H    0.900
    22   6 C    3.937 --    23 C    1.367    20 C    1.342    37 H    0.964
    23   6 C    3.924 --    22 C    1.367    24 N    1.299     1 C    1.115
    24   7 N    3.009 --     3 C    1.362    23 C    1.299
    25   1 H    0.999 --     1 C    0.973
    26   1 H    0.999 --     2 C    0.971
    27   1 H    0.998 --     6 C    0.972
    28   1 H    0.998 --     7 C    0.973
    29   1 H    0.954 --     9 N    0.900
    30   1 H    0.997 --    10 C    0.964
    31   1 H    0.999 --    12 C    0.973
    32   1 H    0.999 --    13 C    0.973
    33   1 H    0.997 --    16 C    0.965
    34   1 H    0.998 --    18 C    0.973
    35   1 H    0.998 --    19 C    0.973
    36   1 H    0.954 --    21 N    0.900
    37   1 H    0.997 --    22 C    0.964
    38   6 C    3.960 --    39 C    1.716    60 C    1.115    62 H    0.973
    39   6 C    3.961 --    38 C    1.716    40 C    1.122    63 H    0.971
    40   6 C    3.915 --    61 N    1.362    41 C    1.242    39 C    1.122
    41   6 C    3.940 --    42 C    1.247    40 C    1.242    86 C    1.194
    42   6 C    3.901 --    41 C    1.247    43 C    1.238    46 N    1.226
    43   6 C    3.955 --    44 C    1.592    42 C    1.238    64 H    0.972
    44   6 C    3.948 --    43 C    1.592    45 C    1.224    65 H    0.973
    45   6 C    3.918 --    47 C    1.344    44 C    1.224    46 N    1.202
    46   7 N    3.590 --    42 C    1.226    45 C    1.202    66 H    0.900
    47   6 C    3.921 --    48 C    1.357    45 C    1.344    67 H    0.964
    48   6 C    3.939 --    47 C    1.357    52 N    1.324    49 C    1.107
    49   6 C    3.963 --    50 C    1.731    48 C    1.107    68 H    0.973
    50   6 C    3.962 --    49 C    1.731    51 C    1.109    69 H    0.973
    51   6 C    3.938 --    53 C    1.354    52 N    1.325    50 C    1.109
    52   7 N    3.001 --    51 C    1.325    48 C    1.324
    53   6 C    3.922 --    51 C    1.354    54 C    1.347    70 H    0.965
    54   6 C    3.921 --    53 C    1.347    55 C    1.216    58 N    1.210
    55   6 C    3.949 --    56 C    1.608    54 C    1.216    71 H    0.973
    56   6 C    3.953 --    55 C    1.608    57 C    1.215    72 H    0.973
    57   6 C    3.916 --    59 C    1.342    56 C    1.215    58 N    1.211
    58   7 N    3.586 --    57 C    1.211    54 C    1.210    73 H    0.900
    59   6 C    3.937 --    60 C    1.367    57 C    1.342    74 H    0.964
    60   6 C    3.924 --    59 C    1.367    61 N    1.299    38 C    1.115
    61   7 N    3.009 --    40 C    1.362    60 C    1.299
    62   1 H    0.999 --    38 C    0.973
    63   1 H    0.999 --    39 C    0.971
    64   1 H    0.998 --    43 C    0.972
    65   1 H    0.998 --    44 C    0.973
    66   1 H    0.954 --    46 N    0.900
    67   1 H    0.997 --    47 C    0.964
    68   1 H    0.999 --    49 C    0.973
    69   1 H    0.999 --    50 C    0.973
    70   1 H    0.997 --    53 C    0.965
    71   1 H    0.998 --    55 C    0.973
    72   1 H    0.998 --    56 C    0.973
    73   1 H    0.954 --    58 N    0.900
    74   1 H    0.997 --    59 C    0.964
    75   6 C    3.882 --    76 C    2.435     4 C    1.194    78 C    0.192
    76   6 C    3.924 --    75 C    2.435    77 C    1.337
    77   6 C    3.915 --    78 C    2.350    76 C    1.337    80 C    0.191
    78   6 C    3.917 --    77 C    2.350    79 C    1.338    75 C    0.192
    79   6 C    3.920 --    80 C    2.431    78 C    1.338
    80   6 C    3.883 --    79 C    2.431    90 C    1.198    77 C    0.191
    81   6 C    3.883 --    82 C    2.431   102 C    1.199    84 C    0.191
    82   6 C    3.920 --    81 C    2.431    83 C    1.338
    83   6 C    3.917 --    84 C    2.349    82 C    1.338    86 C    0.192
    84   6 C    3.916 --    83 C    2.349    85 C    1.337    81 C    0.191
    85   6 C    3.924 --    86 C    2.435    84 C    1.337
    86   6 C    3.882 --    85 C    2.435    41 C    1.194    83 C    0.192
    87   6 C    3.961 --    88 C    1.716   109 C    1.115   111 H    0.973
    88   6 C    3.960 --    87 C    1.716    89 C    1.124   112 H    0.972
    89   6 C    3.916 --   110 N    1.363    90 C    1.240    88 C    1.124
    90   6 C    3.926 --    91 C    1.243    89 C    1.240    80 C    1.198
    91   6 C    3.902 --    90 C    1.243    92 C    1.242    95 N    1.227
    92   6 C    3.952 --    93 C    1.587    91 C    1.242   113 H    0.972
    93   6 C    3.949 --    92 C    1.587    94 C    1.228   114 H    0.973
    94   6 C    3.914 --    96 C    1.336    93 C    1.228    95 N    1.203
    95   7 N    3.586 --    91 C    1.227    94 C    1.203   115 H    0.898
    96   6 C    3.923 --    97 C    1.371    94 C    1.336   116 H    0.963
    97   6 C    3.926 --    96 C    1.371   101 N    1.295    98 C    1.115
    98   6 C    3.961 --    99 C    1.715    97 C    1.115   117 H    0.973
    99   6 C    3.960 --    98 C    1.715   100 C    1.124   118 H    0.972
   100   6 C    3.916 --   101 N    1.363   102 C    1.240    99 C    1.124
   101   7 N    3.000 --   100 C    1.363    97 C    1.295
   102   6 C    3.926 --   103 C    1.243   100 C    1.240    81 C    1.199
   103   6 C    3.902 --   102 C    1.243   104 C    1.241   107 N    1.227
   104   6 C    3.952 --   105 C    1.587   103 C    1.241   119 H    0.972
   105   6 C    3.949 --   104 C    1.587   106 C    1.228   120 H    0.973
   106   6 C    3.914 --   108 C    1.336   105 C    1.228   107 N    1.203
   107   7 N    3.586 --   103 C    1.227   106 C    1.203   121 H    0.897
   108   6 C    3.923 --   109 C    1.371   106 C    1.336   122 H    0.963
   109   6 C    3.926 --   108 C    1.371   110 N    1.295    87 C    1.115
   110   7 N    3.000 --    89 C    1.363   109 C    1.295
   111   1 H    0.999 --    87 C    0.973
   112   1 H    0.999 --    88 C    0.972
   113   1 H    0.998 --    92 C    0.972
   114   1 H    0.998 --    93 C    0.973
   115   1 H    0.954 --    95 N    0.898
   116   1 H    0.997 --    96 C    0.963
   117   1 H    0.999 --    98 C    0.973
   118   1 H    0.999 --    99 C    0.972
   119   1 H    0.998 --   104 C    0.972
   120   1 H    0.998 --   105 C    0.973
   121   1 H    0.954 --   107 N    0.897
   122   1 H    0.997 --   108 C    0.963
 ---------------------------------------------------------------------------

molecular dipole:
                 x           y           z       tot (Debye)
 q only:        0.000      -0.001      -0.027
   full:        0.000      -0.001      -0.043       0.110

 projected vibrational frequencies (cm⁻¹)
eigval :       -0.00    -0.00    -0.00     0.00     0.00     0.00
eigval :        2.26     2.64     5.08     6.13     7.03     8.71
eigval :       13.25    18.91    21.39    26.42    28.90    35.22
eigval :       41.68    42.57    42.76    46.37    52.77    60.52
eigval :       66.47    73.95    84.70    86.93    91.16    92.92
eigval :       93.26    98.99   106.09   113.35   113.68   115.23
eigval :      118.18   119.93   141.88   141.98   143.09   148.02
eigval :      149.42   156.65   179.18   180.57   181.57   182.56
eigval :      184.46   185.20   196.00   199.94   201.55   202.31
eigval :      203.52   219.04   251.31   264.78   264.92   265.26
eigval :      265.42   265.98   268.58   274.10   281.33   282.73
eigval :      293.90   297.61   298.43   314.42   318.70   320.82
eigval :      339.09   340.22   341.10   342.64   344.80   344.82
eigval :      350.36   350.60   352.14   352.55   356.81   359.65
eigval :      362.39   362.76   365.69   381.94   382.41   392.95
eigval :      393.03   393.61   394.01   394.05   398.91   416.09
eigval :      420.60   422.00   430.20   430.21   437.76   438.45
eigval :      440.61   441.98   452.62   460.93   501.59   503.07
eigval :      503.16   504.18   600.52   600.61   600.78   605.16
eigval :      605.28   605.59   624.86   627.22   627.23   636.67
eigval :      636.68   638.11   646.99   647.00   649.53   649.81
eigval :      650.74   650.74   653.60   653.66   658.46   658.56
eigval :      665.64   666.01   668.61   668.64   670.65   700.29
eigval :      705.93   715.65   716.98   723.88   724.73   728.63
eigval :      728.71   733.85   741.19   741.42   742.45   744.07
eigval :      748.77   749.24   754.82   760.55   761.44   762.37
eigval :      770.76   770.76   784.12   789.36   789.42   791.14
eigval :      798.55   798.60   804.62   806.18   806.26   806.80
eigval :      812.10   812.22   816.97   818.76   819.21   819.29
eigval :      827.98   828.02   836.53   836.55   837.75   837.98
eigval :      839.35   839.44   842.38   842.42   842.98   843.03
eigval :      843.77   844.07   852.59   852.61   853.35   853.52
eigval :      853.65   853.72   895.92   897.48   949.22   951.32
eigval :      959.79   960.19   960.24   971.38   972.70   972.72
eigval :      977.04   977.04   999.74   999.78  1001.17  1004.73
eigval :     1008.61  1009.44  1016.28  1016.35  1023.59  1031.50
eigval :     1031.56  1034.97  1048.15  1050.27  1063.47  1063.52
eigval :     1065.67  1066.45  1066.55  1067.30  1069.65  1069.70
eigval :     1070.07  1074.59  1074.98  1075.03  1093.42  1106.45
eigval :     1120.77  1122.31  1125.25  1127.31  1139.59  1146.88
eigval :     1155.69  1160.69  1169.23  1170.61  1180.61  1182.79
eigval :     1183.85  1185.26  1188.58  1204.89  1207.31  1209.04
eigval :     1230.88  1233.51  1233.52  1252.52  1255.85  1256.51
eigval :     1279.65  1285.15  1285.18  1293.39  1296.35  1296.76
eigval :     1305.34  1305.37  1327.98  1337.39  1338.19  1338.81
eigval :     1347.15  1347.19  1361.61  1362.67  1365.86  1369.19
eigval :     1374.51  1374.56  1381.56  1383.12  1383.16  1386.02
eigval :     1388.02  1388.06  1391.73  1394.80  1397.96  1435.99
eigval :     1450.07  1450.96  1463.86  1465.64  1476.55  1478.75
eigval :     1482.05  1487.46  1490.89  1499.86  1504.28  1504.69
eigval :     1505.43  1507.16  1508.01  1509.90  1510.48  1513.52
eigval :     1513.56  1536.78  1548.45  1549.89  1550.02  1554.49
eigval :     1554.86  1555.63  1560.33  1560.37  1581.91  1585.05
eigval :     1585.09  1586.82  1594.44  1594.51  2143.85  2149.21
eigval :     2199.40  2199.51  2259.46  2260.09  3073.69  3074.15
eigval :     3076.92  3077.02  3077.82  3077.93  3086.49  3086.55
eigval :     3140.29  3140.30  3144.54  3144.84  3145.12  3145.19
eigval :     3155.43  3155.47  3156.49  3156.52  3159.57  3159.84
eigval :     3160.22  3160.40  3160.98  3161.07  3161.21  3161.31
eigval :     3168.97  3168.98  3172.05  3172.14  3172.66  3172.74
eigval :     3332.08  3335.91  3348.70  3348.75  3356.86  3356.87

   temp. (K)  partition function   enthalpy   heat capacity  entropy
                                   cal/mol     cal/K/mol   cal/K/mol   J/K/mol
 298.15  VIB  0.227E+37            41854.178    268.961    268.202
         ROT  0.102E+10              888.752      2.981     44.210
         INT  0.232E+46            42742.931    271.942    312.413
         TR   0.339E+29             1481.254      4.968     46.765
         TOT                       44224.1845   276.9103   359.1780  1502.8006

       T/K    H(0)-H(T)+PV         H(T)/Eh          T*S/Eh         G(T)/Eh
   ------------------------------------------------------------------------
    298.15    0.704757E-01    0.941978E+00    0.170657E+00    0.771321E+00
   ------------------------------------------------------------------------

         :::::::::::::::::::::::::::::::::::::::::::::::::::::
         ::                  THERMODYNAMIC                  ::
         :::::::::::::::::::::::::::::::::::::::::::::::::::::
         :: total free energy        -207.506982718039 Eh   ::
         ::.................................................::
         :: total energy             -208.278303941812 Eh   ::
         :: zero point energy           0.871502545932 Eh   ::
         :: G(RRHO) w/o ZPVE           -0.100181322159 Eh   ::
         :: G(RRHO) contrib.            0.771321223773 Eh   ::
         :::::::::::::::::::::::::::::::::::::::::::::::::::::

           -------------------------------------------------
          | TOTAL ENERGY             -208.278303941812 Eh   |
          | TOTAL ENTHALPY           -207.336325671866 Eh   |
          | TOTAL FREE ENERGY        -207.506982718039 Eh   |
          | GRADIENT NORM               0.000426743356 Eh/α |
          | HOMO-LUMO GAP               0.923140152116 eV   |
           -------------------------------------------------

 * finished run on 2021/11/19 at 15:26:32.276
