   * xtb version 6.4.1 (bd6e46d) compiled by 'conda@4901f00b25ba' on 2021-06-10
          program call               : /home/jeff/miniconda3/bin/xtb input_structure_1.xyz --gfn 2 --ohess normal --parallel 1 --etemp 300 --chrg 0 --uhf 0 -I det_control.in
          number of atoms            :                    74
          number of electrons        :                   252
          charge                     :                     0
          spin                       :                   0.0

   ID    Z sym.   atoms
    1   29 Cu     1, 39
    2    6 C      2-9, 11-15, 17-21, 23, 24, 37, 38, 40-47, 49-53, 55-59, 61,
                  62
    3    7 N      10, 16, 22, 25, 48, 54, 60, 63
    4    1 H      26-36, 64-74

          :  Hamiltonian                  GFN2-xTB          :
 * total energy  :  -131.4796300 Eh     change       -0.3850232E-08 Eh
 * total energy  :  -132.0089340 Eh     change       -0.5293040E+00 Eh
 * total energy  :  -132.1690796 Eh     change       -0.1601456E+00 Eh
 * total energy  :  -132.2462927 Eh     change       -0.7721302E-01 Eh
 * total energy  :  -132.2948583 Eh     change       -0.4856568E-01 Eh
 * total energy  :  -132.3225096 Eh     change       -0.2765126E-01 Eh
 * total energy  :  -132.3406242 Eh     change       -0.1811461E-01 Eh
 * total energy  :  -132.3536926 Eh     change       -0.1306841E-01 Eh
 * total energy  :  -132.3637164 Eh     change       -0.1002382E-01 Eh
 * total energy  :  -132.3719081 Eh     change       -0.8191690E-02 Eh
 * total energy  :  -132.4224203 Eh     change       -0.1720764E-04 Eh
 * total energy  :  -132.4224370 Eh     change       -0.1668347E-04 Eh
 * total energy  :  -132.4224491 Eh     change       -0.1214227E-04 Eh
 * total energy  :  -132.4224565 Eh     change       -0.7329450E-05 Eh
 * total energy  :  -132.4224619 Eh     change       -0.5443622E-05 Eh
 * total energy  :  -132.4224676 Eh     change       -0.5674843E-05 Eh
 * total energy  :  -132.4224739 Eh     change       -0.6360232E-05 Eh
 * total energy  :  -132.4224796 Eh     change       -0.5651026E-05 Eh
 * total energy  :  -132.4224842 Eh     change       -0.4591232E-05 Eh
   *** GEOMETRY OPTIMIZATION CONVERGED AFTER 90 ITERATIONS ***

 final structure:
================
74
 xtb: 6.4.1 (bd6e46d)
Cu        9.20051713164317   -0.06377886777589    0.06266967427844
C        11.73270820519099   -3.37548579524949    0.92611350525476
C        12.68394771480043   -2.44488039918183    0.67627357492812
C        11.99442371336019   -1.23261917671448    0.33739384495671
C        12.63856270502951   -0.03358729864277    0.00370071475901
C        11.96140176180939    1.14961987353207   -0.32107092906384
C        12.61715130262299    2.36765271943550   -0.70329568842345
C        11.64111785903060    3.27654051127180   -0.93728535447338
C        10.39131861084516    2.61179496223933   -0.69983531452879
N        10.61943815086285    1.32192437260683   -0.33261160728981
C         9.15467164081751    3.21917631240763   -0.82746449870301
C         7.93548045279376    2.60073412760485   -0.61511899445392
C         6.66238158366576    3.25520986861617   -0.75017392295842
C         5.71685848730261    2.32880622572931   -0.47212517273456
C         6.41105655926213    1.10665842885169   -0.16825934517187
N         7.75022733816808    1.30400121997282   -0.26058619674673
C         5.78590640654132   -0.08376471851880    0.15993167277549
C         6.44291971366561   -1.26750810126321    0.44706860630602
C         5.78149084638159   -2.49855325851185    0.78528940577522
C         6.75184017866617   -3.41655920440777    0.99767543994014
C         8.00731608825857   -2.74739998820754    0.79010184842119
N         7.78737014278372   -1.45055619627621    0.45670485824687
C         9.24323916883483   -3.35400315824973    0.92638142749931
C        10.46408013966817   -2.72819656641995    0.74726815239311
N        10.65695616553944   -1.42933132556917    0.39178875284300
H        11.85891669887767   -4.40265044214912    1.20911863938055
H        13.75070912240505   -2.54528657942960    0.72404056465363
H        13.67983163757901    2.48525472867334   -0.78982841847620
H        11.73902424424781    4.29987711097679   -1.24415268422864
H         9.14120469966992    4.26011601231855   -1.11699341433407
H         6.53350198128394    4.28547706689447   -1.02121532945270
H         4.64949217017447    2.43898749590953   -0.46869063644298
H         4.70609302960756   -0.08991020123518    0.19235260506166
H         4.71715934813381   -2.62000840328843    0.84711523765626
H         6.65083524884312   -4.44940819931689    1.27036240760863
H         9.25734136344858   -4.39836384030388    1.20318619144781
C        14.04148901001729   -0.01682959989137   -0.00746154851324
C        15.25391012032033   -0.00081807085593   -0.01143792020401
Cu       20.09504860467675    0.06314318624265   -0.06361584332420
C        17.57589511419457    3.34277196048427    0.94582868834988
C        16.62113241866928    2.41443556880125    0.70024903494942
C        17.30541259793833    1.21282141554658    0.31579856040486
C        16.65684298363088    0.01675935594025   -0.02028911762252
C        17.32966896209210   -1.16391930327092   -0.36272988893521
C        16.66890651363275   -2.38677859779627   -0.71985119667270
C        17.64169872263559   -3.29382240266983   -0.97338834308070
C        18.89476402541502   -2.62148238149454   -0.77819216284317
N        18.67158721138242   -1.33095203459498   -0.41060052490667
C        20.12976664574959   -3.22016774458052   -0.95348670846303
C        21.35164737366415   -2.58902096448480   -0.80343466048353
C        22.62268882383901   -3.22972592983919   -1.00698513516217
C        23.57162036308924   -2.29250036741850   -0.78218693919679
C        22.88149676670552   -1.07816459311202   -0.44001946396058
N        21.54155914835306   -1.29016425072716   -0.46001253999816
C        23.51028728178030    0.11783382144880   -0.14059716405446
C        22.85677462183496    1.29123874398271    0.19381859605320
C        23.52230718174025    2.52499719691591    0.51395885447009
C        22.55525346850976    3.42761139352542    0.79592805789135
C        21.29749168447139    2.74717599410079    0.64623538188941
N        21.51300208334364    1.45841574159947    0.27980265857480
C        20.06404792890679    3.33800746882327    0.85514836691564
C        18.84124707842475    2.70622396204812    0.71328985934036
N        18.64320775504266    1.41406454285258    0.33676888462914
H        17.45410305524794    4.36243707384229    1.25662165780376
H        15.55560306184812    2.50893129992486    0.77967608572438
H        15.60490385599309   -2.50939040620184   -0.77684531937653
H        17.53959969678445   -4.31995938202929   -1.26935784325257
H        20.13919349792675   -4.26220069981178   -1.23921122784924
H        22.74763124092559   -4.25844271226549   -1.28528555485451
H        24.63870147538152   -2.39078781316221   -0.83746871813583
H        24.59013106179862    0.13618845376756   -0.16724591761919
H        24.58700912302506    2.65838179907301    0.51777569555085
H        22.65991367447731    4.45731709685599    1.07901148924558
H        20.05378915505263    4.37638986219056    1.15396524999944

          :  Hamiltonian                  GFN2-xTB          :
         :: gradient norm              0.000482423134 Eh/a0 ::
         :: HOMO-LUMO gap              0.001103507184 eV    ::
         :: SCC energy              -134.653094950716 Eh    ::
         :: -> dispersion             -0.118079173752 Eh    ::
         :: repulsion energy           2.231889197908 Eh    ::

    * Orbital Energies and Occupations

         #    Occupation            Energy/Eh            Energy/eV
      -------------------------------------------------------------
         1        2.0000           -0.6776095             -18.4387
       ...           ...                  ...                  ...
       114        2.0000           -0.3894188             -10.5966
       115        2.0000           -0.3893462             -10.5947
       116        2.0000           -0.3756176             -10.2211
       117        2.0000           -0.3755959             -10.2205
       118        2.0000           -0.3751278             -10.2077
       119        2.0000           -0.3751014             -10.2070
       120        2.0000           -0.3695655             -10.0564
       121        2.0000           -0.3695537             -10.0561
       122        2.0000           -0.3689369             -10.0393
       123        2.0000           -0.3679426             -10.0122
       124        2.0000           -0.3679209             -10.0116
       125        2.0000           -0.3545142              -9.6468
       126        1.0107           -0.3198124              -8.7025 (HOMO)
       127        0.9893           -0.3197719              -8.7014 (LUMO)
       128        0.0000           -0.3081238              -8.3845
       129                         -0.2983145              -8.1176
       130                         -0.2983074              -8.1174
       131                         -0.2922685              -7.9530
       132                         -0.2627257              -7.1491
       133                         -0.2541744              -6.9164
       134                         -0.1900872              -5.1725
       135                         -0.1900758              -5.1722
       136                         -0.1768274              -4.8117
       137                         -0.1714152              -4.6644
       ...                                ...                  ...
       240                          1.4097404              38.3610
      -------------------------------------------------------------
                  HL-Gap            0.0000406 Eh            0.0011 eV

     #   Z          covCN         q      C6AA      α(0)
     1  29 Cu       2.955     0.195   146.224    27.535
     2   6 C        3.022    -0.051    29.237     8.869
     3   6 C        3.020    -0.049    29.192     8.863
     4   6 C        3.162     0.078    25.944     8.326
     5   6 C        2.953     0.018    27.601     8.617
     6   6 C        3.162     0.078    25.944     8.325
     7   6 C        3.020    -0.049    29.194     8.863
     8   6 C        3.022    -0.051    29.236     8.869
     9   6 C        3.147     0.077    26.027     8.346
    10   7 N        2.620    -0.171    24.721     7.384
    11   6 C        2.901    -0.050    29.238     8.866
    12   6 C        3.144     0.078    26.015     8.345
    13   6 C        3.019    -0.050    29.213     8.866
    14   6 C        3.019    -0.050    29.217     8.867
    15   6 C        3.144     0.079    26.000     8.343
    16   7 N        2.622    -0.170    24.687     7.379
    17   6 C        2.901    -0.052    29.278     8.872
    18   6 C        3.144     0.079    25.998     8.343
    19   6 C        3.019    -0.050    29.217     8.867
    20   6 C        3.019    -0.050    29.214     8.866
    21   6 C        3.144     0.078    26.013     8.345
    22   7 N        2.623    -0.170    24.689     7.379
    23   6 C        2.901    -0.050    29.238     8.866
    24   6 C        3.147     0.077    26.027     8.346
    25   7 N        2.619    -0.171    24.722     7.384
    26   1 H        0.926     0.034     2.529     2.487
    27   1 H        0.926     0.035     2.516     2.481
    28   1 H        0.926     0.035     2.514     2.480
    29   1 H        0.926     0.034     2.529     2.487
    30   1 H        0.926     0.049     2.327     2.386
    31   1 H        0.926     0.035     2.522     2.484
    32   1 H        0.926     0.035     2.523     2.484
    33   1 H        0.926     0.049     2.336     2.390
    34   1 H        0.926     0.035     2.523     2.484
    35   1 H        0.926     0.035     2.522     2.484
    36   1 H        0.926     0.049     2.327     2.386
    37   6 C        1.992    -0.028    31.801     9.107
    38   6 C        1.992    -0.028    31.801     9.107
    39  29 Cu       2.955     0.195   146.224    27.535
    40   6 C        3.022    -0.051    29.236     8.869
    41   6 C        3.020    -0.049    29.193     8.863
    42   6 C        3.162     0.078    25.945     8.326
    43   6 C        2.953     0.018    27.600     8.617
    44   6 C        3.162     0.078    25.944     8.326
    45   6 C        3.020    -0.049    29.193     8.863
    46   6 C        3.022    -0.051    29.237     8.870
    47   6 C        3.147     0.077    26.026     8.346
    48   7 N        2.620    -0.171    24.722     7.384
    49   6 C        2.901    -0.050    29.239     8.866
    50   6 C        3.144     0.078    26.014     8.345
    51   6 C        3.019    -0.050    29.214     8.866
    52   6 C        3.019    -0.050    29.217     8.867
    53   6 C        3.144     0.079    25.999     8.343
    54   7 N        2.622    -0.170    24.688     7.379
    55   6 C        2.901    -0.052    29.278     8.872
    56   6 C        3.144     0.079    26.000     8.343
    57   6 C        3.019    -0.050    29.217     8.867
    58   6 C        3.019    -0.050    29.213     8.866
    59   6 C        3.144     0.078    26.015     8.346
    60   7 N        2.623    -0.170    24.688     7.379
    61   6 C        2.901    -0.050    29.238     8.866
    62   6 C        3.147     0.077    26.028     8.346
    63   7 N        2.620    -0.171    24.721     7.384
    64   1 H        0.926     0.034     2.529     2.487
    65   1 H        0.926     0.035     2.514     2.480
    66   1 H        0.926     0.035     2.517     2.481
    67   1 H        0.926     0.034     2.529     2.487
    68   1 H        0.926     0.049     2.327     2.386
    69   1 H        0.926     0.035     2.522     2.484
    70   1 H        0.926     0.035     2.523     2.484
    71   1 H        0.926     0.049     2.336     2.390
    72   1 H        0.926     0.035     2.523     2.484
    73   1 H        0.926     0.035     2.522     2.484
    74   1 H        0.926     0.049     2.327     2.386

Wiberg/Mayer (AO) data.
largest (>0.10) Wiberg bond orders for each atom

     #   Z sym  total        # sym  WBO       # sym  WBO       # sym  WBO
 ---------------------------------------------------------------------------
     1  29 Cu   2.324 --    22 N    0.534    16 N    0.533    10 N    0.531
                            25 N    0.531
     2   6 C    3.947 --     3 C    1.652    24 C    1.166    26 H    0.972
     3   6 C    3.950 --     2 C    1.652     4 C    1.173    27 H    0.969
     4   6 C    3.915 --    25 N    1.287     5 C    1.257     3 C    1.173
     5   6 C    3.942 --     4 C    1.257     6 C    1.257    37 C    1.166
     6   6 C    3.916 --    10 N    1.286     5 C    1.257     7 C    1.173
     7   6 C    3.950 --     8 C    1.652     6 C    1.173    28 H    0.969
     8   6 C    3.947 --     7 C    1.652     9 C    1.166    29 H    0.972
     9   6 C    3.922 --    11 C    1.354    10 N    1.251     8 C    1.166
    10   7 N    3.382 --     6 C    1.286     9 C    1.251     1 Cu   0.531
    11   6 C    3.932 --     9 C    1.354    12 C    1.352    30 H    0.964
    12   6 C    3.928 --    11 C    1.352    16 N    1.264    13 C    1.158
    13   6 C    3.950 --    14 C    1.666    12 C    1.158    31 H    0.972
    14   6 C    3.948 --    13 C    1.666    15 C    1.157    32 H    0.972
    15   6 C    3.930 --    17 C    1.351    16 N    1.266    14 C    1.157
    16   7 N    3.378 --    15 C    1.266    12 C    1.264     1 Cu   0.533
    17   6 C    3.928 --    18 C    1.352    15 C    1.351    33 H    0.964
    18   6 C    3.930 --    17 C    1.352    22 N    1.265    19 C    1.158
    19   6 C    3.948 --    20 C    1.666    18 C    1.158    34 H    0.972
    20   6 C    3.950 --    19 C    1.666    21 C    1.158    35 H    0.972
    21   6 C    3.928 --    23 C    1.352    22 N    1.264    20 C    1.158
    22   7 N    3.378 --    18 C    1.265    21 C    1.264     1 Cu   0.534
    23   6 C    3.932 --    24 C    1.354    21 C    1.352    36 H    0.964
    24   6 C    3.922 --    23 C    1.354    25 N    1.251     2 C    1.166
    25   7 N    3.382 --     4 C    1.287    24 C    1.251     1 Cu   0.531
    26   1 H    0.998 --     2 C    0.972
    27   1 H    0.998 --     3 C    0.969
    28   1 H    0.998 --     7 C    0.969
    29   1 H    0.998 --     8 C    0.972
    30   1 H    0.996 --    11 C    0.964
    31   1 H    0.998 --    13 C    0.972
    32   1 H    0.998 --    14 C    0.972
    33   1 H    0.997 --    17 C    0.964
    34   1 H    0.998 --    19 C    0.972
    35   1 H    0.998 --    20 C    0.972
    36   1 H    0.996 --    23 C    0.964
    37   6 C    3.926 --    38 C    2.581     5 C    1.166
    38   6 C    3.926 --    37 C    2.581    43 C    1.166
    39  29 Cu   2.323 --    60 N    0.534    54 N    0.533    48 N    0.531
                            63 N    0.531
    40   6 C    3.947 --    41 C    1.652    62 C    1.166    64 H    0.972
    41   6 C    3.950 --    40 C    1.652    42 C    1.173    65 H    0.969
    42   6 C    3.916 --    63 N    1.287    43 C    1.257    41 C    1.173
    43   6 C    3.942 --    44 C    1.257    42 C    1.257    38 C    1.166
    44   6 C    3.915 --    48 N    1.286    43 C    1.257    45 C    1.173
    45   6 C    3.950 --    46 C    1.652    44 C    1.173    66 H    0.969
    46   6 C    3.947 --    45 C    1.652    47 C    1.166    67 H    0.972
    47   6 C    3.922 --    49 C    1.354    48 N    1.251    46 C    1.166
    48   7 N    3.382 --    44 C    1.286    47 C    1.251    39 Cu   0.531
    49   6 C    3.932 --    47 C    1.354    50 C    1.352    68 H    0.964
    50   6 C    3.928 --    49 C    1.352    54 N    1.264    51 C    1.158
    51   6 C    3.950 --    52 C    1.666    50 C    1.158    69 H    0.972
    52   6 C    3.948 --    51 C    1.666    53 C    1.157    70 H    0.972
    53   6 C    3.930 --    55 C    1.352    54 N    1.266    52 C    1.157
    54   7 N    3.378 --    53 C    1.266    50 C    1.264    39 Cu   0.533
    55   6 C    3.928 --    53 C    1.352    56 C    1.351    71 H    0.964
    56   6 C    3.930 --    55 C    1.351    60 N    1.266    57 C    1.158
    57   6 C    3.948 --    58 C    1.666    56 C    1.158    72 H    0.972
    58   6 C    3.950 --    57 C    1.666    59 C    1.158    73 H    0.972
    59   6 C    3.928 --    61 C    1.352    60 N    1.264    58 C    1.158
    60   7 N    3.378 --    56 C    1.266    59 C    1.264    39 Cu   0.534
    61   6 C    3.932 --    62 C    1.354    59 C    1.352    74 H    0.964
    62   6 C    3.922 --    61 C    1.354    63 N    1.251    40 C    1.166
    63   7 N    3.382 --    42 C    1.287    62 C    1.251    39 Cu   0.531
    64   1 H    0.998 --    40 C    0.972
    65   1 H    0.998 --    41 C    0.969
    66   1 H    0.998 --    45 C    0.969
    67   1 H    0.998 --    46 C    0.972
    68   1 H    0.996 --    49 C    0.964
    69   1 H    0.998 --    51 C    0.972
    70   1 H    0.998 --    52 C    0.972
    71   1 H    0.997 --    55 C    0.964
    72   1 H    0.998 --    57 C    0.972
    73   1 H    0.998 --    58 C    0.972
    74   1 H    0.996 --    61 C    0.964
 ---------------------------------------------------------------------------

molecular dipole:
                 x           y           z       tot (Debye)
 q only:       -0.001       0.003       0.000
   full:       -0.001       0.003       0.000       0.009

 projected vibrational frequencies (cm⁻¹)
eigval :       -0.00    -0.00    -0.00    -0.00     0.00     0.00
eigval :        6.03    10.02    11.23    26.83    38.57    39.21
eigval :       45.82    62.99    71.34    72.40    83.72    91.75
eigval :      117.85   120.46   125.70   132.12   147.39   165.12
eigval :      165.53   180.25   184.83   185.55   201.19   206.98
eigval :      207.83   210.21   211.48   211.56   217.57   218.63
eigval :      219.99   240.20   255.95   259.72   261.75   307.21
eigval :      322.09   322.36   324.44   350.38   351.14   354.30
eigval :      360.91   369.68   372.91   378.66   384.91   392.42
eigval :      392.76   393.57   394.55   401.65   426.64   427.34
eigval :      427.49   429.30   461.64   462.21   500.43   514.75
eigval :      598.74   611.98   613.06   618.14   619.68   622.38
eigval :      622.61   642.43   642.70   643.37   643.64   651.21
eigval :      651.25   657.39   657.45   667.69   671.40   719.35
eigval :      720.11   723.13   723.32   755.83   758.47   762.73
eigval :      765.77   776.49   777.24   778.74   779.20   792.04
eigval :      797.59   797.85   802.47   804.61   805.83   810.25
eigval :      812.15   818.10   819.89   826.18   827.37   832.77
eigval :      834.74   836.48   837.55   841.77   842.27   843.05
eigval :      843.14   844.32   844.98   849.67   851.70   888.71
eigval :      960.92  1000.64  1001.07  1003.17  1003.88  1021.81
eigval :     1025.53  1027.34  1029.27  1034.19  1034.68  1039.91
eigval :     1040.86  1041.45  1044.35  1062.86  1063.69  1066.70
eigval :     1067.59  1069.75  1072.78  1076.49  1078.01  1097.17
eigval :     1143.03  1154.56  1154.61  1164.40  1171.95  1174.47
eigval :     1175.93  1191.14  1225.86  1228.28  1239.65  1241.58
eigval :     1286.78  1289.99  1294.95  1301.34  1301.50  1303.06
eigval :     1318.80  1319.84  1333.46  1333.80  1335.95  1344.39
eigval :     1344.91  1345.12  1355.69  1367.58  1367.68  1367.76
eigval :     1372.69  1450.71  1453.17  1454.30  1464.66  1478.06
eigval :     1488.90  1503.20  1503.58  1510.00  1510.55  1522.58
eigval :     1524.68  1526.46  1534.85  1537.17  1537.62  1552.73
eigval :     1553.50  1559.89  1560.09  1569.25  1570.49  1603.40
eigval :     1603.77  2266.32  3083.87  3084.19  3084.22  3084.46
eigval :     3086.12  3086.39  3147.74  3148.09  3148.41  3148.49
eigval :     3152.08  3152.62  3152.85  3153.15  3161.48  3161.83
eigval :     3162.08  3162.22  3166.49  3167.48  3168.02  3168.98

   temp. (K)  partition function   enthalpy   heat capacity  entropy
                                   cal/mol     cal/K/mol   cal/K/mol   J/K/mol
 298.15  VIB  0.564E+18            23771.239    158.203    146.378
         ROT  0.642E+08              888.752      2.981     38.708
         INT  0.362E+26            24659.991    161.184    185.086
         TR   0.205E+29             1481.254      4.968     45.765
         TOT                       26141.2448   166.1521   230.8512   965.8816

       T/K    H(0)-H(T)+PV         H(T)/Eh          T*S/Eh         G(T)/Eh
   ------------------------------------------------------------------------
    298.15    0.416587E-01    0.560622E+00    0.109685E+00    0.450937E+00
   ------------------------------------------------------------------------

         :::::::::::::::::::::::::::::::::::::::::::::::::::::
         ::                  THERMODYNAMIC                  ::
         :::::::::::::::::::::::::::::::::::::::::::::::::::::
         :: total free energy        -131.971546871731 Eh   ::
         ::.................................................::
         :: total energy             -132.422484179176 Eh   ::
         :: zero point energy           0.518963458979 Eh   ::
         :: G(RRHO) w/o ZPVE           -0.068026151535 Eh   ::
         :: G(RRHO) contrib.            0.450937307444 Eh   ::
         :::::::::::::::::::::::::::::::::::::::::::::::::::::

           -------------------------------------------------
          | TOTAL ENERGY             -132.422484179176 Eh   |
          | TOTAL ENTHALPY           -131.861861994868 Eh   |
          | TOTAL FREE ENERGY        -131.971546871731 Eh   |
          | GRADIENT NORM               0.000482195525 Eh/α |
          | HOMO-LUMO GAP               0.001103552307 eV   |
           -------------------------------------------------

 * finished run on 2021/11/19 at 10:41:12.904
