   * xtb version 6.4.1 (bd6e46d) compiled by 'conda@4901f00b25ba' on 2021-06-10
          program call               : /home/jeff/miniconda3/bin/xtb input_structure_1.xyz --gfn 2 --ohess normal --parallel 1 --etemp 300 --chrg 0 --uhf 0 -I det_control.in
          number of atoms            :                    74
          number of electrons        :                   248
          charge                     :                     0
          spin                       :                   0.0

   ID    Z sym.   atoms
    1   27 Co     1, 39
    2    6 C      2-9, 11-15, 17-21, 23, 24, 37, 38, 40-47, 49-53, 55-59, 61,
                  62
    3    7 N      10, 16, 22, 25, 48, 54, 60, 63
    4    1 H      26-36, 64-74

          :  Hamiltonian                  GFN2-xTB          :
 * total energy  :  -130.9847589 Eh     change       -0.1315564E-07 Eh
 * total energy  :  -131.5252052 Eh     change       -0.5404463E+00 Eh
 * total energy  :  -131.6972006 Eh     change       -0.1719955E+00 Eh
 * total energy  :  -131.7894339 Eh     change       -0.9223331E-01 Eh
 * total energy  :  -131.8518436 Eh     change       -0.6240961E-01 Eh
 * total energy  :  -131.8901635 Eh     change       -0.3831997E-01 Eh
 * total energy  :  -131.9159293 Eh     change       -0.2576581E-01 Eh
 * total energy  :  -131.9332512 Eh     change       -0.1732184E-01 Eh
 * total energy  :  -131.9444599 Eh     change       -0.1120876E-01 Eh
 * total energy  :  -131.9514361 Eh     change       -0.6976152E-02 Eh
 * total energy  :  -131.9931669 Eh     change       -0.1247508E-04 Eh
 * total energy  :  -131.9931798 Eh     change       -0.1288100E-04 Eh
 * total energy  :  -131.9931929 Eh     change       -0.1307246E-04 Eh
 * total energy  :  -131.9932056 Eh     change       -0.1276837E-04 Eh
 * total energy  :  -131.9932179 Eh     change       -0.1226835E-04 Eh
 * total energy  :  -131.9932301 Eh     change       -0.1218894E-04 Eh
 * total energy  :  -131.9932408 Eh     change       -0.1074923E-04 Eh
 * total energy  :  -131.9932477 Eh     change       -0.6841884E-05 Eh
 * total energy  :  -131.9932502 Eh     change       -0.2495655E-05 Eh
   *** GEOMETRY OPTIMIZATION CONVERGED AFTER 94 ITERATIONS ***

 final structure:
================
74
 xtb: 6.4.1 (bd6e46d)
Co        9.22886505808398   -0.04644632931426    0.01263252003243
C        11.63175761074719   -3.37289285198779    1.00821520188166
C        12.60844712008220   -2.46747167319763    0.77551096786644
C        11.95385134234504   -1.25726186615745    0.38167266085776
C        12.64945526365483   -0.09579290186371    0.04569200979459
C        11.99394503126151    1.09518969345267   -0.26838127122458
C        12.69116094453960    2.30445940727973   -0.58582136472603
C        11.74654313038162    3.25678706478825   -0.75574476344091
C        10.48207444822410    2.61607020029663   -0.55609479337360
N        10.64413612010183    1.28640030045363   -0.26946183325764
C         9.27909681592115    3.28254536420720   -0.64550176215671
C         8.05677404668888    2.65965850959843   -0.51874438462563
C         6.80731933241367    3.34851052514333   -0.66127757129933
C         5.83904252381267    2.41385202288647   -0.54830333619801
C         6.50401770243834    1.16271218643438   -0.32688700857632
N         7.86074111843816    1.32420275747864   -0.30146655067807
C         5.83219972522874   -0.03051226622243   -0.16949733114641
C         6.47035980379409   -1.22365475681156    0.09311272547079
C         5.77037619003399   -2.45786966807565    0.30131668715183
C         6.70668881484084   -3.38472779452833    0.59836311957209
C         7.97227456427055   -2.71199910099677    0.55988645033752
N         7.81853819958090   -1.39168949533599    0.24060240999078
C         9.16889754581966   -3.33976965979325    0.82876686014228
C        10.39075049804834   -2.70711432111109    0.75122065265396
N        10.59850222813319   -1.40393018544262    0.38318523235820
H        11.72052845687218   -4.39521158191988    1.32059585228764
H        13.67084280306483   -2.57934407013132    0.86837879369851
H        13.75736235845744    2.38711454841272   -0.66655671878302
H        11.87147802945178    4.29419487813851   -0.99813119876922
H         9.29622098317286    4.34310198579572   -0.84574980810593
H         6.71203920684642    4.40341982093677   -0.83185044664667
H         4.77432892458521    2.53359200206981   -0.60324728030489
H         4.75502690909034   -0.02715050040792   -0.23691737862923
H         4.70580304779775   -2.57086998410636    0.23124937825685
H         6.57951451807613   -4.42605177805942    0.82310968944954
H         9.15071348540385   -4.38411179088615    1.10113737911391
C        14.05260464273691   -0.11206294381420    0.05479423516844
C        15.26448700192255   -0.11307450621409    0.07292616522344
Co       20.06694849188543    0.04682674888142   -0.01827551276399
C        17.55313782064799    3.15907623874614    1.28149488704792
C        16.60957654538766    2.24981040803318    0.94572452757906
C        17.30947387792650    1.09918542162109    0.46080582209897
C        16.66676242088207   -0.08649936208024    0.09759281496481
C        17.37974279954917   -1.25964124915559   -0.15429096337582
C        16.75148202350860   -2.53186773555863   -0.34085713617462
C        17.74730698309300   -3.44468723397713   -0.41072954870521
C        18.97559290820516   -2.71589387243626   -0.31245169869922
N        18.73781235347764   -1.37656740466437   -0.15570745485500
C        20.21748544765608   -3.30192400094832   -0.44282713834820
C        21.38363256065995   -2.57475410627865   -0.55414153228519
C        22.65022508148818   -3.16064941443313   -0.88384860513495
C        23.51509268741217   -2.13647667040628   -1.05322829570225
C        22.78155057716599   -0.93374534228982   -0.78519997695733
N        21.47914895123782   -1.21299058637395   -0.48164129219795
C        23.35703369573342    0.31996620970476   -0.77006489619883
C        22.69008458997308    1.44144053350617   -0.32280078292545
C        23.32784778789695    2.70914451078601   -0.11563823662888
C        22.40936353195032    3.51125105764549    0.46640654519427
C        21.20427336272898    2.74180848843174    0.57246425715107
N        21.38694071577626    1.47770402261465    0.08667264702497
C        20.01331714646821    3.25331062832281    1.04329332290843
C        18.81859843183102    2.56896879141354    0.96556078151284
N        18.65727988655241    1.29759608271571    0.48125764091532
H        17.42465369863058    4.14334429455534    1.68802376084699
H        15.54305706556945    2.31907856548763    1.03504600147679
H        15.69140757381213   -2.68242197049716   -0.39985579753716
H        17.67828966256896   -4.50763123427999   -0.53722701133802
H        20.27008049302072   -4.37596369544828   -0.53680818520940
H        22.82364155347179   -4.21441787174875   -0.98655596999850
H        24.55483023000455   -2.16769281785752   -1.31594621039975
H        24.39502085521344    0.41442363698727   -1.05018588299537
H        24.34745206728603    2.92488133796450   -0.37025616503445
H        22.50902923789107    4.53088331569134    0.78495014920048
H        20.00188633544684    4.26232103528461    1.42651394697280

          :  Hamiltonian                  GFN2-xTB          :
         :: gradient norm              0.000295538423 Eh/a0 ::
         :: HOMO-LUMO gap              0.006011058026 eV    ::
         :: SCC energy              -134.237390237069 Eh    ::
         :: -> dispersion             -0.118611322533 Eh    ::
         :: repulsion energy           2.245339801209 Eh    ::

    * Orbital Energies and Occupations

         #    Occupation            Energy/Eh            Energy/eV
      -------------------------------------------------------------
         1        2.0000           -0.6683103             -18.1856
       ...           ...                  ...                  ...
       112        2.0000           -0.4019169             -10.9367
       113        2.0000           -0.4017472             -10.9321
       114        2.0000           -0.3712342             -10.1018
       115        2.0000           -0.3679149             -10.0115
       116        2.0000           -0.3675889             -10.0026
       117        2.0000           -0.3568690              -9.7109
       118        1.9145           -0.3464820              -9.4283
       119        1.9032           -0.3463591              -9.4249
       120        1.8919           -0.3462481              -9.4219
       121        1.8758           -0.3461082              -9.4181
       122        1.8242           -0.3457514              -9.4084
       123        1.8152           -0.3456993              -9.4070
       124        1.4371           -0.3444194              -9.3721 (HOMO)
       125        1.3381           -0.3441977              -9.3661 (LUMO)
       126                         -0.3053774              -8.3097
       127                         -0.2954767              -8.0403
       128                         -0.2950174              -8.0278
       129                         -0.2894638              -7.8767
       130                         -0.2610460              -7.1034
       131                         -0.2605546              -7.0901
       132                         -0.2571279              -6.9968
       133                         -0.2518382              -6.8529
       134                         -0.1910541              -5.1988
       135                         -0.1910162              -5.1978
       ...                                ...                  ...
       240                          1.4144012              38.4878
      -------------------------------------------------------------
                  HL-Gap            0.0002217 Eh            0.0060 eV

     #   Z          covCN         q      C6AA      α(0)
     1  27 Co       3.058     0.098   140.958    24.325
     2   6 C        3.024    -0.053    29.297     8.878
     3   6 C        3.023    -0.051    29.249     8.871
     4   6 C        3.192     0.072    25.913     8.302
     5   6 C        2.956     0.018    27.597     8.617
     6   6 C        3.194     0.072    25.906     8.300
     7   6 C        3.022    -0.052    29.264     8.873
     8   6 C        3.024    -0.053    29.296     8.878
     9   6 C        3.180     0.072    25.994     8.324
    10   7 N        2.631    -0.130    23.839     7.251
    11   6 C        2.905    -0.050    29.247     8.868
    12   6 C        3.177     0.073    25.988     8.324
    13   6 C        3.021    -0.052    29.275     8.875
    14   6 C        3.022    -0.052    29.277     8.876
    15   6 C        3.177     0.073    25.982     8.323
    16   7 N        2.632    -0.129    23.811     7.247
    17   6 C        2.905    -0.052    29.287     8.874
    18   6 C        3.177     0.073    25.982     8.323
    19   6 C        3.022    -0.052    29.277     8.875
    20   6 C        3.021    -0.052    29.275     8.875
    21   6 C        3.177     0.073    25.988     8.324
    22   7 N        2.632    -0.129    23.811     7.247
    23   6 C        2.905    -0.050    29.248     8.868
    24   6 C        3.180     0.072    25.993     8.323
    25   7 N        2.631    -0.130    23.839     7.251
    26   1 H        0.926     0.034     2.531     2.488
    27   1 H        0.926     0.035     2.520     2.483
    28   1 H        0.926     0.036     2.503     2.474
    29   1 H        0.926     0.034     2.531     2.488
    30   1 H        0.926     0.049     2.328     2.386
    31   1 H        0.926     0.034     2.527     2.486
    32   1 H        0.926     0.034     2.529     2.487
    33   1 H        0.926     0.049     2.336     2.390
    34   1 H        0.926     0.034     2.529     2.487
    35   1 H        0.926     0.034     2.528     2.486
    36   1 H        0.926     0.049     2.328     2.386
    37   6 C        1.990    -0.029    31.817     9.109
    38   6 C        1.990    -0.030    31.840     9.113
    39  27 Co       3.086     0.099   140.945    24.323
    40   6 C        3.023    -0.053    29.296     8.878
    41   6 C        3.022    -0.052    29.265     8.874
    42   6 C        3.189     0.072    25.941     8.308
    43   6 C        2.956     0.019    27.582     8.614
    44   6 C        3.188     0.072    25.943     8.310
    45   6 C        3.022    -0.051    29.244     8.871
    46   6 C        3.023    -0.053    29.298     8.879
    47   6 C        3.176     0.072    26.019     8.330
    48   7 N        2.638    -0.130    23.832     7.250
    49   6 C        2.904    -0.050    29.236     8.866
    50   6 C        3.173     0.072    26.015     8.331
    51   6 C        3.021    -0.052    29.275     8.875
    52   6 C        3.021    -0.052    29.278     8.876
    53   6 C        3.173     0.073    26.009     8.330
    54   7 N        2.640    -0.129    23.800     7.245
    55   6 C        2.904    -0.051    29.275     8.872
    56   6 C        3.173     0.073    26.008     8.330
    57   6 C        3.021    -0.052    29.277     8.876
    58   6 C        3.021    -0.052    29.276     8.875
    59   6 C        3.173     0.072    26.015     8.331
    60   7 N        2.640    -0.129    23.800     7.245
    61   6 C        2.904    -0.050    29.234     8.866
    62   6 C        3.176     0.071    26.021     8.330
    63   7 N        2.640    -0.130    23.820     7.249
    64   1 H        0.926     0.034     2.527     2.486
    65   1 H        0.926     0.036     2.503     2.474
    66   1 H        0.926     0.035     2.516     2.480
    67   1 H        0.926     0.034     2.530     2.487
    68   1 H        0.926     0.049     2.327     2.385
    69   1 H        0.926     0.034     2.525     2.485
    70   1 H        0.926     0.034     2.526     2.486
    71   1 H        0.926     0.049     2.334     2.389
    72   1 H        0.926     0.034     2.526     2.485
    73   1 H        0.926     0.034     2.525     2.485
    74   1 H        0.926     0.049     2.326     2.385

Wiberg/Mayer (AO) data.
largest (>0.10) Wiberg bond orders for each atom

     #   Z sym  total        # sym  WBO       # sym  WBO       # sym  WBO
 ---------------------------------------------------------------------------
     1  27 Co   3.336 --    16 N    0.724    22 N    0.724    25 N    0.722
                            10 N    0.722
     2   6 C    3.953 --     3 C    1.643    24 C    1.173    26 H    0.972
     3   6 C    3.957 --     2 C    1.643     4 C    1.182    27 H    0.968
     4   6 C    3.923 --     5 C    1.265    25 N    1.260     3 C    1.182
     5   6 C    3.947 --     4 C    1.265     6 C    1.264    37 C    1.161
     6   6 C    3.922 --     5 C    1.264    10 N    1.259     7 C    1.181
     7   6 C    3.958 --     8 C    1.643     6 C    1.181    28 H    0.969
     8   6 C    3.954 --     7 C    1.643     9 C    1.173    29 H    0.972
     9   6 C    3.930 --    11 C    1.359    10 N    1.229     8 C    1.173
    10   7 N    3.514 --     6 C    1.259     9 C    1.229     1 Co   0.722
    11   6 C    3.939 --    12 C    1.359     9 C    1.359    30 H    0.963
    12   6 C    3.935 --    11 C    1.359    16 N    1.239    13 C    1.165
    13   6 C    3.957 --    14 C    1.658    12 C    1.165    31 H    0.972
    14   6 C    3.955 --    13 C    1.658    15 C    1.165    32 H    0.972
    15   6 C    3.936 --    17 C    1.357    16 N    1.242    14 C    1.165
    16   7 N    3.510 --    15 C    1.242    12 C    1.239     1 Co   0.724
    17   6 C    3.936 --    18 C    1.358    15 C    1.357    33 H    0.964
    18   6 C    3.936 --    17 C    1.358    22 N    1.242    19 C    1.165
    19   6 C    3.955 --    20 C    1.658    18 C    1.165    34 H    0.972
    20   6 C    3.957 --    19 C    1.658    21 C    1.166    35 H    0.972
    21   6 C    3.935 --    23 C    1.359    22 N    1.239    20 C    1.166
    22   7 N    3.510 --    18 C    1.242    21 C    1.239     1 Co   0.724
    23   6 C    3.939 --    24 C    1.359    21 C    1.359    36 H    0.963
    24   6 C    3.930 --    23 C    1.359    25 N    1.229     2 C    1.173
    25   7 N    3.514 --     4 C    1.260    24 C    1.229     1 Co   0.722
    26   1 H    0.998 --     2 C    0.972
    27   1 H    0.998 --     3 C    0.968
    28   1 H    0.998 --     7 C    0.969
    29   1 H    0.998 --     8 C    0.972
    30   1 H    0.996 --    11 C    0.963
    31   1 H    0.998 --    13 C    0.972
    32   1 H    0.998 --    14 C    0.972
    33   1 H    0.996 --    17 C    0.964
    34   1 H    0.998 --    19 C    0.972
    35   1 H    0.998 --    20 C    0.972
    36   1 H    0.996 --    23 C    0.963
    37   6 C    3.928 --    38 C    2.588     5 C    1.161
    38   6 C    3.929 --    37 C    2.588    43 C    1.162
    39  27 Co   3.365 --    54 N    0.726    60 N    0.726    63 N    0.724
                            48 N    0.723
    40   6 C    3.954 --    41 C    1.642    62 C    1.174    64 H    0.972
    41   6 C    3.958 --    40 C    1.642    42 C    1.182    65 H    0.969
    42   6 C    3.923 --    43 C    1.261    63 N    1.260    41 C    1.182
    43   6 C    3.946 --    44 C    1.265    42 C    1.261    38 C    1.162
    44   6 C    3.923 --    43 C    1.265    48 N    1.258    45 C    1.182
    45   6 C    3.958 --    46 C    1.642    44 C    1.182    66 H    0.968
    46   6 C    3.954 --    45 C    1.642    47 C    1.174    67 H    0.972
    47   6 C    3.930 --    49 C    1.356    48 N    1.230    46 C    1.174
    48   7 N    3.514 --    44 C    1.258    47 C    1.230    39 Co   0.723
    49   6 C    3.937 --    50 C    1.358    47 C    1.356    68 H    0.964
    50   6 C    3.935 --    49 C    1.358    54 N    1.237    51 C    1.165
    51   6 C    3.957 --    52 C    1.657    50 C    1.165    69 H    0.972
    52   6 C    3.955 --    51 C    1.657    53 C    1.165    70 H    0.972
    53   6 C    3.937 --    55 C    1.356    54 N    1.242    52 C    1.165
    54   7 N    3.511 --    53 C    1.242    50 C    1.237    39 Co   0.726
    55   6 C    3.934 --    56 C    1.357    53 C    1.356    71 H    0.964
    56   6 C    3.937 --    55 C    1.357    60 N    1.241    57 C    1.165
    57   6 C    3.955 --    58 C    1.656    56 C    1.165    72 H    0.972
    58   6 C    3.957 --    57 C    1.656    59 C    1.166    73 H    0.972
    59   6 C    3.935 --    61 C    1.356    60 N    1.239    58 C    1.166
    60   7 N    3.511 --    56 C    1.241    59 C    1.239    39 Co   0.726
    61   6 C    3.937 --    62 C    1.359    59 C    1.356    74 H    0.964
    62   6 C    3.930 --    61 C    1.359    63 N    1.227    40 C    1.174
    63   7 N    3.514 --    42 C    1.260    62 C    1.227    39 Co   0.724
    64   1 H    0.998 --    40 C    0.972
    65   1 H    0.998 --    41 C    0.969
    66   1 H    0.998 --    45 C    0.968
    67   1 H    0.998 --    46 C    0.972
    68   1 H    0.996 --    49 C    0.964
    69   1 H    0.998 --    51 C    0.972
    70   1 H    0.998 --    52 C    0.972
    71   1 H    0.996 --    55 C    0.964
    72   1 H    0.998 --    57 C    0.972
    73   1 H    0.998 --    58 C    0.972
    74   1 H    0.996 --    61 C    0.964
 ---------------------------------------------------------------------------

molecular dipole:
                 x           y           z       tot (Debye)
 q only:        0.051       0.017       0.002
   full:        0.054       0.020      -0.001       0.145

 projected vibrational frequencies (cm⁻¹)
eigval :       -0.00    -0.00    -0.00    -0.00     0.00     0.00
eigval :       -9.92     8.67    10.07    16.50    25.87    28.92
eigval :       35.64    60.60    67.87    83.05   101.25   103.64
eigval :      115.14   119.66   124.63   138.46   189.84   190.13
eigval :      193.21   215.43   224.99   226.44   230.73   231.67
eigval :      244.18   247.19   249.34   250.03   250.60   252.62
eigval :      266.80   267.95   271.76   273.00   286.44   313.04
eigval :      325.61   327.01   333.35   344.39   350.54   358.67
eigval :      365.44   377.09   380.81   385.01   389.19   390.75
eigval :      397.47   401.71   406.02   418.85   423.30   426.84
eigval :      436.65   438.83   462.48   463.90   502.30   517.94
eigval :      606.96   619.51   621.56   623.12   623.39   625.61
eigval :      625.95   637.30   638.73   642.77   644.20   658.55
eigval :      659.23   665.97   668.02   673.75   674.70   723.17
eigval :      724.08   724.24   725.06   758.56   761.56   765.93
eigval :      769.69   779.42   780.85   781.33   782.59   795.59
eigval :      799.96   800.44   804.71   806.71   807.05   810.64
eigval :      812.50   818.30   820.14   825.87   827.55   833.49
eigval :      834.90   836.76   837.77   843.36   844.24   844.85
eigval :      845.32   845.65   845.79   848.52   855.27   887.37
eigval :      958.00   989.46   991.48  1002.61  1003.87  1016.26
eigval :     1019.94  1021.15  1022.48  1026.54  1027.31  1035.33
eigval :     1035.81  1037.11  1041.12  1062.25  1064.99  1067.12
eigval :     1068.79  1070.56  1072.33  1073.78  1075.26  1096.46
eigval :     1135.37  1140.11  1141.08  1155.55  1171.90  1172.94
eigval :     1175.36  1188.26  1224.03  1226.34  1244.47  1245.55
eigval :     1281.13  1282.63  1294.91  1305.21  1307.05  1308.44
eigval :     1317.60  1319.71  1327.38  1330.72  1331.36  1331.89
eigval :     1334.77  1343.50  1349.55  1355.49  1355.55  1356.23
eigval :     1371.48  1465.41  1467.64  1470.83  1479.92  1487.95
eigval :     1499.97  1504.08  1508.08  1513.00  1518.53  1531.40
eigval :     1532.98  1538.47  1541.91  1544.10  1548.78  1559.45
eigval :     1563.26  1572.87  1578.60  1583.74  1589.45  1613.43
eigval :     1619.96  2271.75  3093.43  3093.44  3093.57  3093.86
eigval :     3094.80  3095.12  3149.54  3149.54  3149.91  3149.99
eigval :     3154.53  3154.87  3154.97  3155.13  3163.40  3163.46
eigval :     3163.70  3163.89  3169.18  3169.91  3170.76  3171.32

   temp. (K)  partition function   enthalpy   heat capacity  entropy
                                   cal/mol     cal/K/mol   cal/K/mol   J/K/mol
 298.15  VIB  0.226E+18            23112.572    156.857    140.396
         ROT  0.125E+09              888.752      2.981     40.029
         INT  0.283E+26            24001.325    159.838    180.425
         TR   0.201E+29             1481.254      4.968     45.729
         TOT                       25482.5787   164.8057   226.1537   946.2271

       T/K    H(0)-H(T)+PV         H(T)/Eh          T*S/Eh         G(T)/Eh
   ------------------------------------------------------------------------
    298.15    0.406091E-01    0.561848E+00    0.107453E+00    0.454395E+00
   ------------------------------------------------------------------------

         :::::::::::::::::::::::::::::::::::::::::::::::::::::
         ::                  THERMODYNAMIC                  ::
         :::::::::::::::::::::::::::::::::::::::::::::::::::::
         :: total free energy        -131.538855080056 Eh   ::
         ::.................................................::
         :: total energy             -131.993250123905 Eh   ::
         :: zero point energy           0.521238893790 Eh   ::
         :: G(RRHO) w/o ZPVE           -0.066843849940 Eh   ::
         :: G(RRHO) contrib.            0.454395043849 Eh   ::
         :::::::::::::::::::::::::::::::::::::::::::::::::::::

           -------------------------------------------------
          | TOTAL ENERGY             -131.993250123905 Eh   |
          | TOTAL ENTHALPY           -131.431402156128 Eh   |
          | TOTAL FREE ENERGY        -131.538855080056 Eh   |
          | GRADIENT NORM               0.000295537135 Eh/α |
          | HOMO-LUMO GAP               0.006033861532 eV   |
           -------------------------------------------------

 * finished run on 2021/11/19 at 10:39:24.447
