   * xtb version 6.4.1 (bd6e46d) compiled by 'conda@4901f00b25ba' on 2021-06-10
          program call               : /home/jeff/miniconda3/bin/xtb input_structure_1.xyz --gfn 2 --ohess normal --parallel 1 --etemp 300 --chrg 0 --uhf 0 -I det_control.in
          number of atoms            :                    78
          number of electrons        :                   264
          charge                     :                     0
          spin                       :                   0.0

   ID    Z sym.   atoms
    1   27 Co     1, 43
    2    6 C      2-9, 11-15, 17-21, 23, 24, 37-42, 44-51, 53-57, 59-63, 65,
                  66
    3    7 N      10, 16, 22, 25, 52, 58, 64, 67
    4    1 H      26-36, 68-78

          :  Hamiltonian                  GFN2-xTB          :
 * total energy  :  -139.6707404 Eh     change       -0.1073701E-07 Eh
 * total energy  :  -140.1065759 Eh     change       -0.4358356E+00 Eh
 * total energy  :  -140.2313733 Eh     change       -0.1247974E+00 Eh
 * total energy  :  -140.3040987 Eh     change       -0.7272537E-01 Eh
 * total energy  :  -140.3464853 Eh     change       -0.4238657E-01 Eh
 * total energy  :  -140.3748025 Eh     change       -0.2831723E-01 Eh
 * total energy  :  -140.3932275 Eh     change       -0.1842497E-01 Eh
 * total energy  :  -140.4039764 Eh     change       -0.1074888E-01 Eh
 * total energy  :  -140.4099119 Eh     change       -0.5935537E-02 Eh
 * total energy  :  -140.4146991 Eh     change       -0.4787248E-02 Eh
 * total energy  :  -140.4440374 Eh     change       -0.1176768E-03 Eh
 * total energy  :  -140.4441120 Eh     change       -0.7458117E-04 Eh
 * total energy  :  -140.4441550 Eh     change       -0.4301967E-04 Eh
 * total energy  :  -140.4441619 Eh     change       -0.6855637E-05 Eh
 * total energy  :  -140.4441725 Eh     change       -0.1063962E-04 Eh
 * total energy  :  -140.4441820 Eh     change       -0.9520534E-05 Eh
 * total energy  :  -140.4441880 Eh     change       -0.5996940E-05 Eh
 * total energy  :  -140.4441950 Eh     change       -0.6940342E-05 Eh
 * total energy  :  -140.4441996 Eh     change       -0.4570080E-05 Eh
   *** GEOMETRY OPTIMIZATION CONVERGED AFTER 44 ITERATIONS ***

 final structure:
================
78
 xtb: 6.4.1 (bd6e46d)
Co        6.66946914514953   -0.05315669670957    0.00750259087203
C         9.12210818865105   -3.49406127512973    0.09242620580051
C        10.08574236846267   -2.54584547674142    0.11918168184308
C         9.41163430417974   -1.28403949126392    0.08157368071690
C        10.09195503426465   -0.06462586318258    0.06990213226814
C         9.42091999236226    1.15955411223822    0.03332953783372
C        10.10468004914305    2.41660846800719    0.01524533986920
C         9.14725091648971    3.37114345740560   -0.00807090511164
C         7.89013337939218    2.68670926926131   -0.00284342001438
N         8.06891744301323    1.32819251901973    0.01842259872889
C         6.67847075016011    3.34286595853098   -0.00335557470538
C         5.46382390639244    2.69273540546147    0.00752742757238
C         4.20660627235536    3.38194661435457    0.01871441192553
C         3.24797553096574    2.43072671425565    0.01591253894429
C         3.92715680015728    1.16777442619412    0.00029073172164
N         5.28315828141495    1.33772399473446    0.00099805841877
C         3.26689133377746   -0.04161056670851   -0.03101024786789
C         3.91972278351499   -1.25520732446453   -0.05624934753765
C         3.23278404644399   -2.51312128534134   -0.10324131909815
C         4.18517220505475   -3.47063328095611   -0.10414999262819
C         5.44632832055453   -2.79033434239204   -0.05485381351876
N         5.27430606145432   -1.43427705515665   -0.03231300950164
C         6.65588341476673   -3.44879530570728   -0.01529731543986
C         7.87081105634355   -2.80100577033633    0.04010981673377
N         8.05896149769969   -1.44363134335313    0.04027897171076
H         9.22648928879413   -4.56151040029803    0.10567448954791
H        11.15106791797659   -2.66436681127008    0.15903554643098
H        11.17149898985761    2.52813273997262    0.02130197699447
H         9.25930998474105    4.43772424702634   -0.02580872243466
H         6.68257119185061    4.42226969351612   -0.00981189552616
H         4.09991738265608    4.44944219448032    0.02730129327396
H         2.18136707322167    2.54584855449992    0.02140888747765
H         2.18765025934952   -0.03806833364522   -0.04060581890013
H         2.16571975882422   -2.62088406227092   -0.13112425198297
H         4.07174015949051   -4.53708185767602   -0.13267523015062
H         6.65284950390952   -4.52818315941627   -0.02489564541454
C        11.48903359642068   -0.06781170418708    0.08511441418896
C        12.70840791803322   -0.06558200290235    0.08654863118126
C        14.04514909939754   -0.05802129383422    0.08895511703151
C        15.26892727816307   -0.04652218000594    0.08517628005987
C        16.60551097127190   -0.02988172251669    0.08826820514447
C        17.82480946412006   -0.01185877235768    0.09888972436913
Co       22.62728590715519    0.05445946537643   -0.02054276955738
C        20.14969335980653    3.43674467277952    0.39660494349438
C        19.19513691797116    2.48651598910149    0.27069609077929
C        19.88239885988710    1.23765643664700    0.14379758106172
C        19.22121879549346    0.00693854490479    0.11063040219995
C        19.91613094951704   -1.20414074470987    0.16999995051562
C        19.26563567598254   -2.46885679970782    0.32804565557052
C        20.24778832156336   -3.39343009177476    0.43120284808315
C        21.48658621574047   -2.68822990969852    0.30075356836406
N        21.27099978651513   -1.34303090430393    0.15376599946346
C        22.71207053042493   -3.31728578306970    0.24029666255148
C        23.88574138343960   -2.65426587074077   -0.04942312874999
C        25.13168505788506   -3.32315743200876   -0.28621841971575
C        26.02219618489937   -2.36675820964965   -0.62911576648932
C        25.32366895649420   -1.11604533555928   -0.56271464441222
N        24.01470052308104   -1.30424582806879   -0.21857142145426
C        25.93982967520963    0.10594150655994   -0.73350369853367
C        25.30026288059236    1.30505280661425   -0.49775758258484
C        25.97446246063143    2.57071181568848   -0.49309565922155
C        25.05694877471570    3.49390181284707   -0.13079708306472
C        23.81969005762504    2.79131244076941    0.04627831153949
N        23.98211309123524    1.45131137825349   -0.16952045984649
C        22.62121352033254    3.42126034296560    0.30619947927999
C        21.40954532198165    2.76299492377965    0.30871433575817
N        21.23327785570991    1.41276976658735    0.15721536618375
H        20.03293940620242    4.49570596183881    0.52101465882648
H        18.12792799764167    2.59479593589166    0.27731751515783
H        18.20226859786387   -2.60444019642777    0.36789551377713
H        20.16213448202020   -4.45421679998947    0.56501921836007
H        22.74372584701458   -4.38931074053356    0.36241312412035
H        25.27582177409733   -4.38350523830155   -0.20958534386441
H        27.05834770007790   -2.47033963315346   -0.88727664151226
H        26.98610191345796    0.12318360542386   -0.99782263635432
H        27.01371700317988    2.70575292791977   -0.72266206883802
H        25.17699599508197    4.55276853993720   -0.00659008356324
H        22.62292929921781    4.49109565266909    0.44968540185672

          :  Hamiltonian                  GFN2-xTB          :
         :: gradient norm              0.000427477845 Eh/a0 ::
         :: HOMO-LUMO gap              0.003800890120 eV    ::
         :: SCC energy              -142.975250726867 Eh    ::
         :: -> dispersion             -0.119998682065 Eh    ::
         :: repulsion energy           2.532239770528 Eh    ::

    * Orbital Energies and Occupations

         #    Occupation            Energy/Eh            Energy/eV
      -------------------------------------------------------------
         1        2.0000           -0.6690912             -18.2069
       ...           ...                  ...                  ...
       120        2.0000           -0.3930420             -10.6952
       121        2.0000           -0.3795848             -10.3290
       122        2.0000           -0.3689850             -10.0406
       123        2.0000           -0.3687680             -10.0347
       124        2.0000           -0.3684705             -10.0266
       125        2.0000           -0.3560006              -9.6873
       126        1.9093           -0.3473720              -9.4525
       127        1.8969           -0.3472440              -9.4490
       128        1.8895           -0.3471743              -9.4471
       129        1.8724           -0.3470295              -9.4432
       130        1.8231           -0.3466934              -9.4340
       131        1.8163           -0.3466543              -9.4329
       132        1.4272           -0.3453446              -9.3973 (HOMO)
       133        1.3653           -0.3452049              -9.3935 (LUMO)
       134                         -0.3071894              -8.3590
       135                         -0.2962876              -8.0624
       136                         -0.2958616              -8.0508
       137                         -0.2945440              -8.0150
       138                         -0.2652997              -7.2192
       139                         -0.2624807              -7.1425
       140                         -0.2591066              -7.0507
       141                         -0.2563024              -6.9743
       142                         -0.2524988              -6.8708
       143                         -0.2263960              -6.1605
       ...                                ...                  ...
       256                          1.7175953              46.7381
      -------------------------------------------------------------
                  HL-Gap            0.0001397 Eh            0.0038 eV

     #   Z          covCN         q      C6AA      α(0)
     1  27 Co       3.054     0.099   140.942    24.323
     2   6 C        3.025    -0.053    29.292     8.878
     3   6 C        3.022    -0.052    29.255     8.872
     4   6 C        3.195     0.073    25.876     8.293
     5   6 C        2.956     0.017    27.634     8.622
     6   6 C        3.196     0.073    25.873     8.292
     7   6 C        3.022    -0.052    29.257     8.872
     8   6 C        3.025    -0.053    29.292     8.878
     9   6 C        3.181     0.072    25.985     8.321
    10   7 N        2.629    -0.131    23.853     7.254
    11   6 C        2.905    -0.050    29.240     8.867
    12   6 C        3.178     0.073    25.980     8.323
    13   6 C        3.021    -0.052    29.273     8.875
    14   6 C        3.022    -0.052    29.274     8.875
    15   6 C        3.177     0.073    25.975     8.322
    16   7 N        2.631    -0.129    23.817     7.248
    17   6 C        2.905    -0.052    29.283     8.873
    18   6 C        3.177     0.073    25.975     8.322
    19   6 C        3.022    -0.052    29.274     8.875
    20   6 C        3.021    -0.052    29.272     8.875
    21   6 C        3.177     0.073    25.981     8.323
    22   7 N        2.631    -0.129    23.816     7.248
    23   6 C        2.905    -0.050    29.240     8.867
    24   6 C        3.181     0.072    25.984     8.321
    25   7 N        2.630    -0.131    23.853     7.254
    26   1 H        0.926     0.034     2.532     2.488
    27   1 H        0.926     0.036     2.500     2.473
    28   1 H        0.926     0.036     2.500     2.473
    29   1 H        0.926     0.034     2.532     2.488
    30   1 H        0.926     0.049     2.326     2.385
    31   1 H        0.926     0.034     2.525     2.485
    32   1 H        0.926     0.034     2.527     2.486
    33   1 H        0.926     0.049     2.334     2.389
    34   1 H        0.926     0.034     2.527     2.486
    35   1 H        0.926     0.034     2.525     2.485
    36   1 H        0.926     0.049     2.326     2.385
    37   6 C        1.993    -0.020    31.572     9.074
    38   6 C        1.963    -0.011    31.351     9.042
    39   6 C        1.964    -0.002    31.132     9.011
    40   6 C        1.964    -0.003    31.141     9.012
    41   6 C        1.963    -0.010    31.338     9.040
    42   6 C        1.992    -0.020    31.584     9.076
    43  27 Co       3.079     0.100   140.937    24.323
    44   6 C        3.024    -0.053    29.292     8.878
    45   6 C        3.021    -0.052    29.255     8.872
    46   6 C        3.192     0.072    25.903     8.300
    47   6 C        2.956     0.017    27.621     8.620
    48   6 C        3.192     0.072    25.903     8.300
    49   6 C        3.021    -0.052    29.255     8.872
    50   6 C        3.024    -0.053    29.292     8.878
    51   6 C        3.178     0.072    26.008     8.327
    52   7 N        2.636    -0.131    23.842     7.252
    53   6 C        2.904    -0.050    29.229     8.865
    54   6 C        3.174     0.073    26.005     8.329
    55   6 C        3.021    -0.052    29.273     8.875
    56   6 C        3.021    -0.052    29.274     8.875
    57   6 C        3.174     0.073    25.999     8.328
    58   7 N        2.638    -0.129    23.805     7.246
    59   6 C        2.904    -0.051    29.271     8.871
    60   6 C        3.174     0.073    25.999     8.328
    61   6 C        3.021    -0.052    29.275     8.875
    62   6 C        3.021    -0.052    29.272     8.875
    63   6 C        3.174     0.073    26.004     8.329
    64   7 N        2.638    -0.129    23.804     7.246
    65   6 C        2.904    -0.049    29.228     8.865
    66   6 C        3.178     0.071    26.009     8.327
    67   7 N        2.637    -0.131    23.840     7.252
    68   1 H        0.926     0.034     2.530     2.487
    69   1 H        0.926     0.036     2.499     2.472
    70   1 H        0.926     0.036     2.499     2.472
    71   1 H        0.926     0.034     2.530     2.487
    72   1 H        0.926     0.050     2.325     2.384
    73   1 H        0.926     0.035     2.523     2.484
    74   1 H        0.926     0.034     2.524     2.484
    75   1 H        0.926     0.049     2.332     2.388
    76   1 H        0.926     0.034     2.524     2.485
    77   1 H        0.926     0.035     2.523     2.484
    78   1 H        0.926     0.050     2.325     2.384

Wiberg/Mayer (AO) data.
largest (>0.10) Wiberg bond orders for each atom

     #   Z sym  total        # sym  WBO       # sym  WBO       # sym  WBO
 ---------------------------------------------------------------------------
     1  27 Co   3.330 --    22 N    0.723    16 N    0.723    25 N    0.722
                            10 N    0.721
     2   6 C    3.952 --     3 C    1.642    24 C    1.174    26 H    0.972
     3   6 C    3.957 --     2 C    1.642     4 C    1.183    27 H    0.970
     4   6 C    3.915 --    25 N    1.262     5 C    1.256     3 C    1.183
     5   6 C    3.948 --     4 C    1.256     6 C    1.256    37 C    1.181
     6   6 C    3.915 --    10 N    1.262     5 C    1.256     7 C    1.183
     7   6 C    3.957 --     8 C    1.642     6 C    1.183    28 H    0.970
     8   6 C    3.952 --     7 C    1.642     9 C    1.174    29 H    0.972
     9   6 C    3.929 --    11 C    1.360    10 N    1.228     8 C    1.174
    10   7 N    3.514 --     6 C    1.262     9 C    1.228     1 Co   0.721
    11   6 C    3.938 --     9 C    1.360    12 C    1.358    30 H    0.963
    12   6 C    3.934 --    11 C    1.358    16 N    1.239    13 C    1.166
    13   6 C    3.957 --    14 C    1.658    12 C    1.166    31 H    0.972
    14   6 C    3.955 --    13 C    1.658    15 C    1.165    32 H    0.972
    15   6 C    3.936 --    17 C    1.358    16 N    1.242    14 C    1.165
    16   7 N    3.509 --    15 C    1.242    12 C    1.239     1 Co   0.723
    17   6 C    3.935 --    15 C    1.358    18 C    1.358    33 H    0.964
    18   6 C    3.936 --    17 C    1.358    22 N    1.242    19 C    1.165
    19   6 C    3.955 --    20 C    1.657    18 C    1.165    34 H    0.972
    20   6 C    3.957 --    19 C    1.657    21 C    1.166    35 H    0.972
    21   6 C    3.934 --    23 C    1.358    22 N    1.239    20 C    1.166
    22   7 N    3.509 --    18 C    1.242    21 C    1.239     1 Co   0.723
    23   6 C    3.938 --    24 C    1.359    21 C    1.358    36 H    0.963
    24   6 C    3.929 --    23 C    1.359    25 N    1.228     2 C    1.174
    25   7 N    3.514 --     4 C    1.262    24 C    1.228     1 Co   0.722
    26   1 H    0.998 --     2 C    0.972
    27   1 H    0.998 --     3 C    0.970
    28   1 H    0.998 --     7 C    0.970
    29   1 H    0.998 --     8 C    0.972
    30   1 H    0.996 --    11 C    0.963
    31   1 H    0.998 --    13 C    0.972
    32   1 H    0.998 --    14 C    0.972
    33   1 H    0.996 --    17 C    0.964
    34   1 H    0.998 --    19 C    0.972
    35   1 H    0.998 --    20 C    0.972
    36   1 H    0.996 --    23 C    0.963
    37   6 C    3.884 --    38 C    2.450     5 C    1.181    40 C    0.194
    38   6 C    3.931 --    37 C    2.450    39 C    1.328
    39   6 C    3.921 --    40 C    2.363    38 C    1.328    42 C    0.194
    40   6 C    3.922 --    39 C    2.363    41 C    1.329    37 C    0.194
    41   6 C    3.930 --    42 C    2.448    40 C    1.329
    42   6 C    3.885 --    41 C    2.448    47 C    1.183    39 C    0.194
    43  27 Co   3.356 --    64 N    0.725    58 N    0.725    67 N    0.723
                            52 N    0.723
    44   6 C    3.953 --    45 C    1.641    66 C    1.174    68 H    0.972
    45   6 C    3.957 --    44 C    1.641    46 C    1.183    69 H    0.970
    46   6 C    3.915 --    67 N    1.261    47 C    1.255    45 C    1.183
    47   6 C    3.946 --    46 C    1.255    48 C    1.254    42 C    1.183
    48   6 C    3.915 --    52 N    1.262    47 C    1.254    49 C    1.184
    49   6 C    3.957 --    50 C    1.641    48 C    1.184    70 H    0.970
    50   6 C    3.953 --    49 C    1.641    51 C    1.174    71 H    0.972
    51   6 C    3.929 --    53 C    1.359    52 N    1.226    50 C    1.174
    52   7 N    3.514 --    48 C    1.262    51 C    1.226    43 Co   0.723
    53   6 C    3.937 --    51 C    1.359    54 C    1.357    72 H    0.963
    54   6 C    3.934 --    53 C    1.357    58 N    1.239    55 C    1.166
    55   6 C    3.957 --    56 C    1.657    54 C    1.166    73 H    0.972
    56   6 C    3.955 --    55 C    1.657    57 C    1.165    74 H    0.972
    57   6 C    3.937 --    59 C    1.357    58 N    1.241    56 C    1.165
    58   7 N    3.509 --    57 C    1.241    54 C    1.239    43 Co   0.725
    59   6 C    3.933 --    57 C    1.357    60 C    1.356    75 H    0.964
    60   6 C    3.937 --    59 C    1.356    64 N    1.242    61 C    1.165
    61   6 C    3.955 --    62 C    1.657    60 C    1.165    76 H    0.972
    62   6 C    3.957 --    61 C    1.657    63 C    1.166    77 H    0.972
    63   6 C    3.934 --    65 C    1.357    64 N    1.238    62 C    1.166
    64   7 N    3.509 --    60 C    1.242    63 C    1.238    43 Co   0.725
    65   6 C    3.937 --    66 C    1.358    63 C    1.357    78 H    0.963
    66   6 C    3.929 --    65 C    1.358    67 N    1.227    44 C    1.174
    67   7 N    3.514 --    46 C    1.261    66 C    1.227    43 Co   0.723
    68   1 H    0.998 --    44 C    0.972
    69   1 H    0.998 --    45 C    0.970
    70   1 H    0.998 --    49 C    0.970
    71   1 H    0.998 --    50 C    0.972
    72   1 H    0.996 --    53 C    0.963
    73   1 H    0.998 --    55 C    0.972
    74   1 H    0.998 --    56 C    0.972
    75   1 H    0.996 --    59 C    0.964
    76   1 H    0.998 --    61 C    0.972
    77   1 H    0.998 --    62 C    0.972
    78   1 H    0.996 --    65 C    0.963
 ---------------------------------------------------------------------------

molecular dipole:
                 x           y           z       tot (Debye)
 q only:        0.065       0.006      -0.005
   full:        0.067       0.008      -0.010       0.173

 projected vibrational frequencies (cm⁻¹)
eigval :       -0.00    -0.00    -0.00     0.00     0.00     0.00
eigval :      -13.18     2.59     6.47     7.02    15.46    23.04
eigval :       23.47    27.21    39.30    71.15    75.22    91.55
eigval :      100.22   100.85   109.24   119.09   119.85   133.37
eigval :      173.51   177.35   183.97   189.60   192.34   225.13
eigval :      226.57   227.60   229.60   237.12   240.14   243.14
eigval :      245.11   249.29   250.19   252.36   265.96   266.75
eigval :      270.56   271.36   300.29   306.57   316.23   317.60
eigval :      319.40   342.33   346.45   347.01   350.15   358.56
eigval :      360.37   363.75   379.54   381.62   383.97   388.81
eigval :      389.69   391.32   392.19   401.58   405.08   406.89
eigval :      422.27   423.07   436.87   437.93   458.80   459.71
eigval :      482.00   505.50   508.12   618.53   618.90   623.13
eigval :      623.34   625.40   625.84   637.26   638.50   643.10
eigval :      643.24   658.48   658.96   666.14   666.46   672.90
eigval :      673.55   706.48   723.04   724.11   725.19   727.78
eigval :      759.93   760.39   766.75   773.09   779.65   781.05
eigval :      781.71   783.08   799.09   799.99   800.31   800.48
eigval :      806.31   806.42   810.86   811.21   818.56   819.17
eigval :      826.25   826.74   834.05   834.61   837.18   837.76
eigval :      844.21   844.59   845.24   845.56   845.61   846.02
eigval :      846.15   846.52   897.60   960.79   989.15   991.34
eigval :     1002.59  1003.56  1015.22  1020.58  1022.17  1022.25
eigval :     1026.92  1027.04  1035.42  1035.56  1040.09  1040.34
eigval :     1066.73  1067.22  1069.49  1070.12  1071.77  1072.44
eigval :     1073.61  1073.94  1083.10  1134.90  1140.17  1141.12
eigval :     1149.38  1171.56  1173.95  1174.91  1180.18  1225.65
eigval :     1225.76  1244.83  1245.39  1268.90  1281.60  1282.00
eigval :     1305.95  1306.07  1307.46  1314.25  1318.34  1320.11
eigval :     1330.86  1331.34  1331.67  1332.05  1339.68  1345.53
eigval :     1354.09  1355.46  1356.34  1357.96  1432.06  1467.63
eigval :     1470.20  1470.44  1482.91  1489.05  1500.93  1504.81
eigval :     1508.34  1514.05  1519.01  1532.13  1532.29  1537.14
eigval :     1537.82  1544.06  1548.06  1559.51  1562.67  1573.31
eigval :     1578.44  1584.74  1589.75  1614.45  1620.21  2165.49
eigval :     2206.40  2268.22  3093.53  3093.56  3093.71  3093.77
eigval :     3094.76  3094.95  3149.65  3149.70  3150.03  3150.07
eigval :     3154.03  3154.23  3154.26  3154.51  3163.50  3163.52
eigval :     3163.91  3164.08  3167.88  3168.25  3168.37  3168.82

   temp. (K)  partition function   enthalpy   heat capacity  entropy
                                   cal/mol     cal/K/mol   cal/K/mol   J/K/mol
 298.15  VIB  0.185E+22            26064.771    172.178    161.824
         ROT  0.243E+09              888.752      2.981     41.352
         INT  0.450E+30            26953.523    175.159    203.176
         TR   0.221E+29             1481.254      4.968     45.913
         TOT                       28434.7768   180.1269   249.0888  1042.1873

       T/K    H(0)-H(T)+PV         H(T)/Eh          T*S/Eh         G(T)/Eh
   ------------------------------------------------------------------------
    298.15    0.453137E-01    0.584894E+00    0.118350E+00    0.466544E+00
   ------------------------------------------------------------------------

         :::::::::::::::::::::::::::::::::::::::::::::::::::::
         ::                  THERMODYNAMIC                  ::
         :::::::::::::::::::::::::::::::::::::::::::::::::::::
         :: total free energy        -139.977656030505 Eh   ::
         ::.................................................::
         :: total energy             -140.444199556389 Eh   ::
         :: zero point energy           0.539579928725 Eh   ::
         :: G(RRHO) w/o ZPVE           -0.073036402841 Eh   ::
         :: G(RRHO) contrib.            0.466543525884 Eh   ::
         :::::::::::::::::::::::::::::::::::::::::::::::::::::

           -------------------------------------------------
          | TOTAL ENERGY             -140.444199556389 Eh   |
          | TOTAL ENTHALPY           -139.859305926488 Eh   |
          | TOTAL FREE ENERGY        -139.977656030505 Eh   |
          | GRADIENT NORM               0.000427481703 Eh/α |
          | HOMO-LUMO GAP               0.003800790142 eV   |
           -------------------------------------------------

 * finished run on 2021/11/19 at 10:52:25.581
