   * xtb version 6.4.1 (bd6e46d) compiled by 'conda@4901f00b25ba' on 2021-06-10
          program call               : /home/jeff/miniconda3/bin/xtb input_structure_1.xyz --gfn 2 --ohess normal --parallel 1 --etemp 300 --chrg 0 --uhf 0 -I det_control.in
          number of atoms            :                   115
          number of electrons        :                   397
          charge                     :                     0
          spin                       :                   0.5

   ID    Z sym.   atoms
    1   29 Cu     1, 37, 81
    2    6 C      2-9, 11-15, 17-21, 23, 24, 38-45, 47-51, 53-57, 59, 60,
                  73-80, 82-89, 91-95, 97-101, 103, 104
    3    7 N      10, 16, 22, 25, 46, 52, 58, 61, 90, 96, 102, 105
    4    1 H      26-36, 62-72, 106-115

          :  Hamiltonian                  GFN2-xTB          :
 * total energy  :  -207.7270075 Eh     change        0.5330432E-07 Eh
 * total energy  :  -207.9257298 Eh     change       -0.1987223E+00 Eh
 * total energy  :  -208.0383502 Eh     change       -0.1126204E+00 Eh
 * total energy  :  -208.0944349 Eh     change       -0.5608466E-01 Eh
 * total energy  :  -208.1338481 Eh     change       -0.3941323E-01 Eh
 * total energy  :  -208.1625077 Eh     change       -0.2865955E-01 Eh
 * total energy  :  -208.1815014 Eh     change       -0.1899369E-01 Eh
 * total energy  :  -208.1928672 Eh     change       -0.1136581E-01 Eh
 * total energy  :  -208.2002420 Eh     change       -0.7374779E-02 Eh
 * total energy  :  -208.2064799 Eh     change       -0.6237899E-02 Eh
 * total energy  :  -208.7019267 Eh     change       -0.4751553E-03 Eh
 * total energy  :  -208.7023372 Eh     change       -0.4105430E-03 Eh
 * total energy  :  -208.7026709 Eh     change       -0.3336286E-03 Eh
 * total energy  :  -208.7029189 Eh     change       -0.2480820E-03 Eh
 * total energy  :  -208.7030852 Eh     change       -0.1662391E-03 Eh
 * total energy  :  -208.7031766 Eh     change       -0.9144027E-04 Eh
 * total energy  :  -208.7032123 Eh     change       -0.3568317E-04 Eh
 * total energy  :  -208.7032242 Eh     change       -0.1186087E-04 Eh
 * total energy  :  -208.7032282 Eh     change       -0.3990094E-05 Eh
   *** GEOMETRY OPTIMIZATION CONVERGED AFTER 66 ITERATIONS ***

 final structure:
================
115
 xtb: 6.4.1 (bd6e46d)
Cu       14.47044237168162   -0.00187538460537   -0.00647958742926
C        16.99238280859177   -3.43137965693136    0.01504860844018
C        17.94647804851536   -2.47033934854978    0.02025388138460
C        17.25957731455301   -1.21061126707081    0.00872308298715
C        17.90859790891329    0.03297124154565    0.00040608650258
C        17.23483755293951    1.26317284162268   -0.00948136960829
C        17.89611705219106    2.53649759581001   -0.01792352628096
C        16.92272541837604    3.47804105491234   -0.01692306864111
C        15.66996699301085    2.77788490888483   -0.00816400874747
N        15.89350489332803    1.43550874307669   -0.00564162891205
C        14.43456983137180    3.40038652676148    0.00140686944662
C        13.21313058676077    2.75070103739958    0.00822386548481
C        11.94134263157945    3.42116031925621    0.01995610243395
C        10.99280802837999    2.45693526860267    0.01623626849953
C        11.68395770242016    1.19612475791299    0.00209808754024
N        13.02434690261969    1.40684435588334   -0.00036475654458
C        11.05496039016083   -0.03651623795130   -0.01268664044268
C        11.70873966780129   -1.25623192074376   -0.02559494726404
C        11.04330502689314   -2.53077083203141   -0.04365302027194
C        12.01117103992931   -3.47560100351032   -0.04491962633540
C        13.26904417880501   -2.77953086934256   -0.02734637372275
N        13.05308340498022   -1.43976786769320   -0.01822590325482
C        14.50337289855562   -3.40426248046632   -0.01554685419215
C        15.72577421714166   -2.75673787633900    0.00046341171965
N        15.92206760662668   -1.41010270474313   -0.00082643285501
H        17.11558711375927   -4.49704841520090    0.02040566666513
H        19.01341025727135   -2.58133309221676    0.03046388026016
H        18.96063777586895    2.66899370109353   -0.02301021577996
H        17.02430691821555    4.54604005496661   -0.02152146135016
H        14.42393824192214    4.48086564463717    0.00367761222167
H        11.81536721336440    4.48671887570968    0.02956500622858
H         9.92529566268562    2.56530349278571    0.02224876206216
H         9.97473274568001   -0.04740807694583   -0.01458519472450
H         9.97824782621673   -2.66074523411865   -0.05389395481100
H        11.90688482401532   -4.54348684683988   -0.05639865989434
H        14.51477339045042   -4.48472793409552   -0.01889112133553
Cu       41.38057969128349    0.03175105300523   -0.00372040241740
C        38.87293188257662    3.43017978969806    0.52830094698373
C        37.91479634959774    2.48545043456670    0.37515720214396
C        38.59648386206899    1.23689679907679    0.18802312431622
C        37.94276024124998    0.00915321559591    0.00781353397087
C        38.61161865233325   -1.20940271563626   -0.17912611343276
C        37.94509361780111   -2.46615378240294   -0.36624626037312
C        38.91435854985470   -3.39718501840996   -0.53256103272406
C        40.16969786212522   -2.70774080837948   -0.44464772331840
N        39.95198551302916   -1.38221426886463   -0.22660504776158
C        41.40203683066178   -3.32257158067553   -0.57463039639454
C        42.62600362245531   -2.68344533453829   -0.48792910657866
C        43.89484047780130   -3.34540011526534   -0.62528060262400
C        44.84738798269598   -2.39870092016137   -0.46423330250155
C        44.16168228453859   -1.15692234576676   -0.22978424023990
N        42.82047602810782   -1.36103541498897   -0.25343019125128
C        44.79582270118376    0.05289783686803   -0.00769223838715
C        44.14711879034147    1.25531575565827    0.21269800581898
C        44.81787632019277    2.50634490853089    0.44133780392638
C        43.85407720128035    3.44232802220040    0.59788407045210
C        42.59330405916800    2.76427030578262    0.46552417169976
N        42.80359931672810    1.44320882382909    0.23689292993870
C        41.36178402589197    3.38836011816935    0.55335609927050
C        40.13669483480413    2.75690410806534    0.43411150437616
N        39.93487134673834    1.42760875281650    0.22417536733271
H        38.75418728099643    4.48384397522166    0.69035922122632
H        36.84832693198615    2.60054839441090    0.38577849237004
H        36.88010384564272   -2.59549245686243   -0.36793237248170
H        38.80826886260820   -4.45170736306539   -0.69881569545595
H        41.40806261154092   -4.38748960132006   -0.75749007832352
H        44.01623473211460   -4.39393847812418   -0.81786442830348
H        45.91430829333575   -2.50743416239325   -0.49710326835838
H        45.87608589526764    0.05942034141495   -0.00772528196184
H        45.88339353070046    2.62813358750556    0.47306456791629
H        43.96290104344096    4.49325385563448    0.78502826724142
H        41.35503887666006    4.45435499311642    0.72982507356067
C        19.30604918532256    0.04541969676907    0.00050693460587
C        20.52425260363066    0.05301643754804   -0.00198401407844
C        21.86592751785624    0.05571034434459   -0.00441120603045
C        23.08429373513749    0.05391001589675   -0.00797827427105
C        32.76689028476299   -0.00452445372545    0.00315223327346
C        33.98518546069637   -0.00608439925888    0.01113992917753
C        35.32696655618005   -0.00293391607763    0.01071927698524
C        36.54514218612853   -0.00003735965378    0.01245961934390
Cu       27.92555085370512    0.02316142034127   -0.01320387329822
C        25.41525550874953   -3.39551287934943    0.34880694593440
C        24.45579445527515   -2.44391067023620    0.25765071125327
C        25.13600207660393   -1.18825551147360    0.11970113465022
C        24.48112077109133    0.04590445526467   -0.01109522713442
C        25.15165410988012    1.27090845983563   -0.14666825772231
C        24.48775146475374    2.53460250508625   -0.29028110511346
C        25.45952858120525    3.47282952565686   -0.38954997451858
C        26.71307890034096    2.77972581569548   -0.30539606690214
N        26.49212887875055    1.44481880692835   -0.16067466429018
C        27.94742067018352    3.40157735740220   -0.35875677558444
C        29.17346751177383    2.76629757184463   -0.27916298033438
C        30.43597413927351    3.44620353622553   -0.33264340973965
C        31.39536202336475    2.49573278124816   -0.23000884827157
C        30.71504804629760    1.23774348103944   -0.11524390615309
N        29.37698909874180    1.42748398255841   -0.14512163543473
C        31.36992173729980    0.00198212555288   -0.00150850990404
C        30.69964172528683   -1.22605628872716    0.10421650951190
C        31.36363577896737   -2.49284768087004    0.21769743413100
C        30.39189263473801   -3.43208570063506    0.30725148483118
C        29.13820696420581   -2.73638541660421    0.24861603518913
N        29.35911772083920   -1.39953917627674    0.12320055939768
C        27.90380066641882   -3.35653775950392    0.31862553428794
C        26.67769403104136   -2.71844799088524    0.26711540408490
N        26.47407066256129   -1.37992833157075    0.13018926912053
H        25.29792161852590   -4.45595110807091    0.46109542993273
H        23.38948430566004   -2.55890634292704    0.27953643666940
H        23.42296895735408    2.66343959525925   -0.31088535211575
H        25.35607582329434    4.53400809740435   -0.50831489625149
H        27.95456031885201    4.47643185180025   -0.47104123955925
H        30.55339375936398    4.50763914402788   -0.43508877683843
H        32.46168003669643    2.61278362494550   -0.23145129088467
H        32.42844589635683   -2.62291211111077    0.22659735024929
H        30.49544575906391   -4.49546979475632    0.40450938262651
H        27.89669458970217   -4.43208981746514    0.42408323058366

          :  Hamiltonian                  GFN2-xTB          :
         :: gradient norm              0.000590956866 Eh/a0 ::
         :: HOMO-LUMO gap              0.000028596467 eV    ::
         :: SCC energy              -212.394494589717 Eh    ::
         :: -> dispersion             -0.183260688951 Eh    ::
         :: repulsion energy           3.693886161246 Eh    ::

    * Orbital Energies and Occupations

         #    Occupation            Energy/Eh            Energy/eV
      -------------------------------------------------------------
         1        2.0000           -0.6789547             -18.4753
       ...           ...                  ...                  ...
       187        2.0000           -0.3764009             -10.2424
       188        2.0000           -0.3755423             -10.2190
       189        2.0000           -0.3708556             -10.0915
       190        2.0000           -0.3708070             -10.0902
       191        2.0000           -0.3706221             -10.0851
       192        2.0000           -0.3701285             -10.0717
       193        2.0000           -0.3697976             -10.0627
       194        2.0000           -0.3697419             -10.0612
       195        2.0000           -0.3685950             -10.0300
       196        2.0000           -0.3613086              -9.8317
       197        2.0000           -0.3511219              -9.5545
       198        1.0170           -0.3214298              -8.7466
       199        0.9914           -0.3213751              -8.7451 (HOMO)
       200        0.9909           -0.3213742              -8.7450 (LUMO)
       201        0.0007           -0.3136570              -8.5350
       202                         -0.3033982              -8.2559
       203                         -0.2995895              -8.1522
       204                         -0.2995508              -8.1512
       205                         -0.2992768              -8.1437
       206                         -0.2940813              -8.0024
       207                         -0.2698715              -7.3436
       208                         -0.2611783              -7.1070
       209                         -0.2569122              -6.9909
       210                         -0.2272553              -6.1839
       ...                                ...                  ...
       379                          1.6322267              44.4151
      -------------------------------------------------------------
                  HL-Gap            0.0000009 Eh            0.0000 eV

     #   Z          covCN         q      C6AA      α(0)
     1  29 Cu       2.956     0.197   146.191    27.532
     2   6 C        3.023    -0.051    29.233     8.869
     3   6 C        3.020    -0.049    29.191     8.863
     4   6 C        3.165     0.079    25.921     8.321
     5   6 C        2.953     0.017    27.627     8.621
     6   6 C        3.164     0.079    25.922     8.321
     7   6 C        3.020    -0.049    29.190     8.862
     8   6 C        3.023    -0.051    29.233     8.869
     9   6 C        3.148     0.077    26.024     8.345
    10   7 N        2.620    -0.172    24.726     7.385
    11   6 C        2.901    -0.050    29.230     8.865
    12   6 C        3.144     0.078    26.011     8.345
    13   6 C        3.019    -0.050    29.210     8.865
    14   6 C        3.019    -0.050    29.214     8.866
    15   6 C        3.144     0.079    25.996     8.342
    16   7 N        2.623    -0.170    24.688     7.379
    17   6 C        2.901    -0.051    29.274     8.871
    18   6 C        3.144     0.079    25.996     8.342
    19   6 C        3.020    -0.050    29.214     8.866
    20   6 C        3.019    -0.050    29.210     8.865
    21   6 C        3.144     0.078    26.011     8.345
    22   7 N        2.622    -0.170    24.688     7.379
    23   6 C        2.901    -0.050    29.230     8.865
    24   6 C        3.148     0.077    26.024     8.345
    25   7 N        2.620    -0.172    24.725     7.385
    26   1 H        0.926     0.034     2.526     2.486
    27   1 H        0.926     0.036     2.502     2.474
    28   1 H        0.926     0.036     2.501     2.473
    29   1 H        0.926     0.034     2.527     2.486
    30   1 H        0.926     0.050     2.323     2.383
    31   1 H        0.926     0.035     2.518     2.481
    32   1 H        0.926     0.035     2.518     2.482
    33   1 H        0.926     0.049     2.332     2.388
    34   1 H        0.926     0.035     2.518     2.482
    35   1 H        0.926     0.035     2.518     2.481
    36   1 H        0.926     0.050     2.323     2.383
    37  29 Cu       2.956     0.197   146.192    27.532
    38   6 C        3.023    -0.051    29.233     8.869
    39   6 C        3.020    -0.049    29.191     8.863
    40   6 C        3.165     0.079    25.921     8.321
    41   6 C        2.953     0.017    27.626     8.621
    42   6 C        3.165     0.079    25.920     8.321
    43   6 C        3.020    -0.049    29.191     8.862
    44   6 C        3.023    -0.051    29.232     8.869
    45   6 C        3.148     0.077    26.023     8.345
    46   7 N        2.620    -0.172    24.726     7.385
    47   6 C        2.901    -0.050    29.230     8.865
    48   6 C        3.144     0.078    26.011     8.345
    49   6 C        3.019    -0.050    29.210     8.865
    50   6 C        3.020    -0.050    29.214     8.866
    51   6 C        3.144     0.079    25.995     8.342
    52   7 N        2.623    -0.170    24.688     7.379
    53   6 C        2.901    -0.051    29.274     8.871
    54   6 C        3.144     0.079    25.996     8.342
    55   6 C        3.020    -0.050    29.214     8.866
    56   6 C        3.019    -0.050    29.210     8.865
    57   6 C        3.144     0.078    26.011     8.345
    58   7 N        2.623    -0.170    24.688     7.379
    59   6 C        2.901    -0.050    29.230     8.865
    60   6 C        3.148     0.077    26.023     8.345
    61   7 N        2.620    -0.172    24.726     7.385
    62   1 H        0.926     0.034     2.526     2.485
    63   1 H        0.926     0.036     2.501     2.473
    64   1 H        0.926     0.036     2.501     2.473
    65   1 H        0.926     0.034     2.526     2.486
    66   1 H        0.926     0.050     2.323     2.383
    67   1 H        0.926     0.035     2.517     2.481
    68   1 H        0.926     0.035     2.518     2.482
    69   1 H        0.926     0.049     2.332     2.388
    70   1 H        0.926     0.035     2.518     2.482
    71   1 H        0.926     0.035     2.517     2.481
    72   1 H        0.926     0.050     2.323     2.383
    73   6 C        1.995    -0.021    31.589     9.077
    74   6 C        1.963    -0.009    31.313     9.037
    75   6 C        1.963    -0.009    31.316     9.037
    76   6 C        1.995    -0.020    31.582     9.076
    77   6 C        1.995    -0.020    31.580     9.075
    78   6 C        1.963    -0.009    31.315     9.037
    79   6 C        1.963    -0.009    31.312     9.036
    80   6 C        1.995    -0.021    31.588     9.076
    81  29 Cu       2.946     0.199   146.163    27.529
    82   6 C        3.023    -0.051    29.233     8.869
    83   6 C        3.020    -0.049    29.199     8.864
    84   6 C        3.166     0.079    25.909     8.318
    85   6 C        2.953     0.017    27.628     8.621
    86   6 C        3.165     0.079    25.909     8.318
    87   6 C        3.020    -0.049    29.198     8.864
    88   6 C        3.023    -0.051    29.233     8.869
    89   6 C        3.149     0.077    26.031     8.346
    90   7 N        2.619    -0.173    24.759     7.390
    91   6 C        2.901    -0.047    29.176     8.857
    92   6 C        3.149     0.077    26.031     8.346
    93   6 C        3.023    -0.051    29.233     8.869
    94   6 C        3.020    -0.049    29.200     8.864
    95   6 C        3.166     0.079    25.908     8.318
    96   7 N        2.619    -0.173    24.758     7.390
    97   6 C        2.953     0.017    27.628     8.621
    98   6 C        3.165     0.079    25.910     8.319
    99   6 C        3.020    -0.049    29.198     8.864
   100   6 C        3.023    -0.051    29.233     8.869
   101   6 C        3.149     0.077    26.032     8.346
   102   7 N        2.619    -0.173    24.759     7.390
   103   6 C        2.901    -0.047    29.176     8.857
   104   6 C        3.149     0.077    26.032     8.346
   105   7 N        2.619    -0.173    24.758     7.390
   106   1 H        0.926     0.034     2.534     2.489
   107   1 H        0.926     0.035     2.512     2.478
   108   1 H        0.926     0.035     2.511     2.478
   109   1 H        0.926     0.034     2.534     2.489
   110   1 H        0.926     0.050     2.321     2.382
   111   1 H        0.926     0.034     2.534     2.489
   112   1 H        0.926     0.035     2.511     2.478
   113   1 H        0.926     0.035     2.511     2.478
   114   1 H        0.926     0.034     2.534     2.489
   115   1 H        0.926     0.050     2.321     2.382

Wiberg/Mayer (AO) data.
largest (>0.10) Wiberg bond orders for each atom

     #   Z sym  total        # sym  WBO       # sym  WBO       # sym  WBO
 ---------------------------------------------------------------------------
     1  29 Cu   2.326 --    16 N    0.534    22 N    0.534    25 N    0.532
                            10 N    0.532
     2   6 C    3.946 --     3 C    1.650    24 C    1.167    26 H    0.972
     3   6 C    3.949 --     2 C    1.650     4 C    1.175    27 H    0.971
     4   6 C    3.909 --    25 N    1.289     5 C    1.249     3 C    1.175
     5   6 C    3.941 --     6 C    1.250     4 C    1.249    73 C    1.185
     6   6 C    3.909 --    10 N    1.289     5 C    1.250     7 C    1.175
     7   6 C    3.949 --     8 C    1.650     6 C    1.175    28 H    0.971
     8   6 C    3.946 --     7 C    1.650     9 C    1.167    29 H    0.972
     9   6 C    3.921 --    11 C    1.355    10 N    1.249     8 C    1.167
    10   7 N    3.382 --     6 C    1.289     9 C    1.249     1 Cu   0.532
    11   6 C    3.931 --     9 C    1.355    12 C    1.352    30 H    0.964
    12   6 C    3.927 --    11 C    1.352    16 N    1.263    13 C    1.158
    13   6 C    3.950 --    14 C    1.666    12 C    1.158    31 H    0.972
    14   6 C    3.947 --    13 C    1.666    15 C    1.158    32 H    0.972
    15   6 C    3.929 --    17 C    1.351    16 N    1.265    14 C    1.158
    16   7 N    3.377 --    15 C    1.265    12 C    1.263     1 Cu   0.534
    17   6 C    3.926 --    15 C    1.351    18 C    1.351    33 H    0.964
    18   6 C    3.929 --    17 C    1.351    22 N    1.265    19 C    1.158
    19   6 C    3.947 --    20 C    1.666    18 C    1.158    34 H    0.972
    20   6 C    3.950 --    19 C    1.666    21 C    1.158    35 H    0.972
    21   6 C    3.927 --    23 C    1.352    22 N    1.263    20 C    1.158
    22   7 N    3.377 --    18 C    1.265    21 C    1.263     1 Cu   0.534
    23   6 C    3.932 --    24 C    1.355    21 C    1.352    36 H    0.964
    24   6 C    3.921 --    23 C    1.355    25 N    1.249     2 C    1.167
    25   7 N    3.382 --     4 C    1.289    24 C    1.249     1 Cu   0.532
    26   1 H    0.998 --     2 C    0.972
    27   1 H    0.998 --     3 C    0.971
    28   1 H    0.998 --     7 C    0.971
    29   1 H    0.998 --     8 C    0.972
    30   1 H    0.996 --    11 C    0.964
    31   1 H    0.998 --    13 C    0.972
    32   1 H    0.998 --    14 C    0.972
    33   1 H    0.997 --    17 C    0.964
    34   1 H    0.998 --    19 C    0.972
    35   1 H    0.998 --    20 C    0.972
    36   1 H    0.996 --    23 C    0.964
    37  29 Cu   2.327 --    58 N    0.534    52 N    0.534    46 N    0.533
                            61 N    0.532
    38   6 C    3.946 --    39 C    1.650    60 C    1.167    62 H    0.972
    39   6 C    3.950 --    38 C    1.650    40 C    1.175    63 H    0.971
    40   6 C    3.909 --    61 N    1.288    41 C    1.250    39 C    1.175
    41   6 C    3.941 --    42 C    1.250    40 C    1.250    80 C    1.185
    42   6 C    3.909 --    46 N    1.288    41 C    1.250    43 C    1.175
    43   6 C    3.949 --    44 C    1.650    42 C    1.175    64 H    0.971
    44   6 C    3.946 --    43 C    1.650    45 C    1.167    65 H    0.972
    45   6 C    3.921 --    47 C    1.355    46 N    1.249    44 C    1.167
    46   7 N    3.382 --    42 C    1.288    45 C    1.249    37 Cu   0.533
    47   6 C    3.932 --    45 C    1.355    48 C    1.352    66 H    0.964
    48   6 C    3.927 --    47 C    1.352    52 N    1.263    49 C    1.158
    49   6 C    3.950 --    50 C    1.666    48 C    1.158    67 H    0.972
    50   6 C    3.947 --    49 C    1.666    51 C    1.158    68 H    0.972
    51   6 C    3.929 --    53 C    1.351    52 N    1.265    50 C    1.158
    52   7 N    3.377 --    51 C    1.265    48 C    1.263    37 Cu   0.534
    53   6 C    3.926 --    51 C    1.351    54 C    1.351    69 H    0.964
    54   6 C    3.929 --    53 C    1.351    58 N    1.265    55 C    1.158
    55   6 C    3.947 --    56 C    1.666    54 C    1.158    70 H    0.972
    56   6 C    3.950 --    55 C    1.666    57 C    1.158    71 H    0.972
    57   6 C    3.927 --    59 C    1.352    58 N    1.263    56 C    1.158
    58   7 N    3.377 --    54 C    1.265    57 C    1.263    37 Cu   0.534
    59   6 C    3.932 --    60 C    1.355    57 C    1.352    72 H    0.964
    60   6 C    3.921 --    59 C    1.355    61 N    1.249    38 C    1.167
    61   7 N    3.382 --    40 C    1.288    60 C    1.249    37 Cu   0.532
    62   1 H    0.998 --    38 C    0.972
    63   1 H    0.998 --    39 C    0.971
    64   1 H    0.998 --    43 C    0.971
    65   1 H    0.998 --    44 C    0.972
    66   1 H    0.996 --    47 C    0.964
    67   1 H    0.998 --    49 C    0.972
    68   1 H    0.998 --    50 C    0.972
    69   1 H    0.997 --    53 C    0.964
    70   1 H    0.998 --    55 C    0.972
    71   1 H    0.998 --    56 C    0.972
    72   1 H    0.996 --    59 C    0.964
    73   6 C    3.918 --    74 C    2.469     5 C    1.185    76 C    0.203
    74   6 C    3.928 --    73 C    2.469    75 C    1.306
    75   6 C    3.925 --    76 C    2.467    74 C    1.306
    76   6 C    3.919 --    75 C    2.467    85 C    1.188    73 C    0.203
    77   6 C    3.919 --    78 C    2.468    97 C    1.187    80 C    0.203
    78   6 C    3.924 --    77 C    2.468    79 C    1.305
    79   6 C    3.927 --    80 C    2.470    78 C    1.305
    80   6 C    3.918 --    79 C    2.470    41 C    1.185    77 C    0.203
    81  29 Cu   2.298 --   105 N    0.527    96 N    0.527    90 N    0.527
                           102 N    0.527
    82   6 C    3.947 --    83 C    1.649   104 C    1.168   106 H    0.972
    83   6 C    3.948 --    82 C    1.649    84 C    1.175   107 H    0.971
    84   6 C    3.910 --   105 N    1.291    85 C    1.247    83 C    1.175
    85   6 C    3.930 --    86 C    1.247    84 C    1.247    76 C    1.188
    86   6 C    3.910 --    90 N    1.291    85 C    1.247    87 C    1.175
    87   6 C    3.948 --    88 C    1.649    86 C    1.175   108 H    0.971
    88   6 C    3.947 --    87 C    1.649    89 C    1.168   109 H    0.972
    89   6 C    3.921 --    91 C    1.354    90 N    1.248    88 C    1.168
    90   7 N    3.372 --    86 C    1.291    89 C    1.248    81 Cu   0.527
    91   6 C    3.926 --    92 C    1.354    89 C    1.354   110 H    0.964
    92   6 C    3.921 --    91 C    1.354    96 N    1.248    93 C    1.168
    93   6 C    3.947 --    94 C    1.650    92 C    1.168   111 H    0.972
    94   6 C    3.948 --    93 C    1.650    95 C    1.175   112 H    0.971
    95   6 C    3.910 --    96 N    1.291    97 C    1.247    94 C    1.175
    96   7 N    3.372 --    95 C    1.291    92 C    1.248    81 Cu   0.527
    97   6 C    3.930 --    98 C    1.247    95 C    1.247    77 C    1.187
    98   6 C    3.910 --   102 N    1.291    97 C    1.247    99 C    1.175
    99   6 C    3.948 --   100 C    1.650    98 C    1.175   113 H    0.971
   100   6 C    3.947 --    99 C    1.650   101 C    1.168   114 H    0.972
   101   6 C    3.921 --   103 C    1.354   102 N    1.249   100 C    1.168
   102   7 N    3.372 --    98 C    1.291   101 C    1.249    81 Cu   0.527
   103   6 C    3.926 --   104 C    1.354   101 C    1.354   115 H    0.964
   104   6 C    3.921 --   103 C    1.354   105 N    1.248    82 C    1.168
   105   7 N    3.372 --    84 C    1.291   104 C    1.248    81 Cu   0.527
   106   1 H    0.998 --    82 C    0.972
   107   1 H    0.998 --    83 C    0.971
   108   1 H    0.998 --    87 C    0.971
   109   1 H    0.998 --    88 C    0.972
   110   1 H    0.996 --    91 C    0.964
   111   1 H    0.998 --    93 C    0.972
   112   1 H    0.998 --    94 C    0.971
   113   1 H    0.998 --    99 C    0.971
   114   1 H    0.998 --   100 C    0.972
   115   1 H    0.996 --   103 C    0.964
 ---------------------------------------------------------------------------

molecular dipole:
                 x           y           z       tot (Debye)
 q only:        0.008      -0.001      -0.003
   full:        0.009      -0.001      -0.005       0.026

 projected vibrational frequencies (cm⁻¹)
eigval :       -0.00    -0.00    -0.00     0.00     0.00     0.00
eigval :       -6.53    -3.46     1.27     3.00     8.05     8.53
eigval :       12.17    22.04    27.96    35.63    37.35    37.85
eigval :       38.65    38.91    39.26    49.10    62.36    82.12
eigval :       82.31    85.32    89.47    91.21   109.60   116.34
eigval :      120.53   120.67   122.25   140.27   140.91   145.20
eigval :      146.00   151.29   165.56   165.81   166.99   181.78
eigval :      183.57   184.15   184.64   190.12   193.84   204.77
eigval :      205.60   206.05   208.78   209.19   212.20   213.94
eigval :      215.72   216.38   217.37   219.63   220.32   229.48
eigval :      241.41   259.48   259.75   259.96   263.71   280.74
eigval :      305.56   308.68   313.21   320.03   320.80   323.87
eigval :      332.14   336.12   345.72   354.71   355.53   358.10
eigval :      366.56   367.22   370.49   370.61   372.24   372.97
eigval :      373.77   382.78   382.93   387.92   388.87   390.78
eigval :      391.86   392.03   393.74   393.77   395.38   400.35
eigval :      426.50   426.51   427.78   428.17   429.19   452.33
eigval :      458.41   458.44   463.33   501.69   504.07   505.86
eigval :      508.23   511.57   529.14   611.35   611.59   611.64
eigval :      613.95   617.61   617.65   622.26   622.27   623.28
eigval :      639.47   642.35   642.35   642.95   643.00   649.98
eigval :      650.98   650.99   651.61   657.22   657.29   666.08
eigval :      668.17   668.44   670.34   717.91   719.30   723.20
eigval :      723.21   753.77   754.80   757.23   757.30   759.55
eigval :      760.02   763.93   765.79   776.85   776.89   778.51
eigval :      778.57   796.11   796.26   797.15   797.60   797.76
eigval :      797.99   803.26   804.84   804.98   805.29   810.33
eigval :      810.46   815.78   816.50   817.62   817.83   818.27
eigval :      818.46   826.44   826.52   833.29   833.38   834.76
eigval :      835.32   836.88   837.00   842.06   842.31   842.45
eigval :      842.62   842.98   843.15   843.20   843.37   843.52
eigval :      845.06   845.25   845.40   929.42   932.79   997.90
eigval :      999.11  1001.24  1003.70  1003.84  1004.18  1005.81
eigval :     1016.79  1028.71  1029.08  1029.19  1029.27  1034.35
eigval :     1034.56  1034.91  1039.58  1040.46  1040.71  1043.43
eigval :     1043.73  1043.86  1044.21  1066.34  1066.45  1067.70
eigval :     1068.41  1068.74  1069.46  1070.14  1070.52  1071.23
eigval :     1075.24  1077.21  1078.39  1126.86  1133.75  1149.46
eigval :     1154.48  1154.49  1159.25  1169.10  1172.20  1173.81
eigval :     1175.13  1175.26  1217.06  1227.71  1227.78  1228.73
eigval :     1236.09  1241.55  1242.68  1244.05  1276.04  1288.34
eigval :     1288.53  1296.87  1301.69  1301.84  1301.96  1302.85
eigval :     1305.44  1317.60  1319.95  1320.15  1328.21  1330.12
eigval :     1332.90  1333.29  1340.18  1340.58  1344.54  1344.63
eigval :     1345.56  1348.93  1362.74  1366.61  1367.38  1367.83
eigval :     1367.89  1403.57  1405.10  1447.30  1453.62  1453.72
eigval :     1453.94  1459.45  1467.77  1473.16  1481.79  1482.36
eigval :     1498.15  1502.00  1506.15  1506.63  1510.17  1510.20
eigval :     1514.37  1521.69  1521.89  1522.16  1524.24  1528.43
eigval :     1528.68  1537.13  1537.27  1541.33  1545.50  1551.96
eigval :     1552.89  1559.70  1559.87  1569.20  1570.03  1571.73
eigval :     1596.37  1603.40  1603.55  2224.08  2228.85  2234.36
eigval :     2234.65  3082.57  3082.64  3084.38  3084.43  3084.51
eigval :     3084.55  3086.75  3086.79  3148.11  3148.43  3148.75
eigval :     3149.06  3152.36  3152.50  3152.62  3152.64  3152.88
eigval :     3152.98  3153.13  3154.04  3161.84  3162.17  3162.50
eigval :     3162.86  3166.53  3166.80  3166.96  3167.05  3167.15
eigval :     3167.29  3167.64  3168.06

   temp. (K)  partition function   enthalpy   heat capacity  entropy
                                   cal/mol     cal/K/mol   cal/K/mol   J/K/mol
 298.15  VIB  0.608E+35            40540.636    260.425    258.066
         ROT  0.840E+09              888.752      2.981     43.816
         INT  0.511E+44            41429.388    263.406    301.882
         TR   0.406E+29             1481.254      4.968     47.123
         TOT                       42910.6418   268.3737   349.0049  1460.2365

       T/K    H(0)-H(T)+PV         H(T)/Eh          T*S/Eh         G(T)/Eh
   ------------------------------------------------------------------------
    298.15    0.683825E-01    0.859954E+00    0.165823E+00    0.694130E+00
   ------------------------------------------------------------------------

         :::::::::::::::::::::::::::::::::::::::::::::::::::::
         ::                  THERMODYNAMIC                  ::
         :::::::::::::::::::::::::::::::::::::::::::::::::::::
         :: total free energy        -208.009097714265 Eh   ::
         ::.................................................::
         :: total energy             -208.703228157336 Eh   ::
         :: zero point energy           0.791571467255 Eh   ::
         :: G(RRHO) w/o ZPVE           -0.097441024184 Eh   ::
         :: G(RRHO) contrib.            0.694130443071 Eh   ::
         :::::::::::::::::::::::::::::::::::::::::::::::::::::

           -------------------------------------------------
          | TOTAL ENERGY             -208.703228157336 Eh   |
          | TOTAL ENTHALPY           -207.843274229565 Eh   |
          | TOTAL FREE ENERGY        -208.009097714265 Eh   |
          | GRADIENT NORM               0.000590898213 Eh/α |
          | HOMO-LUMO GAP               0.000025695847 eV   |
           -------------------------------------------------

 * finished run on 2021/11/19 at 11:39:15.540
