   * xtb version 6.4.1 (bd6e46d) compiled by 'conda@4901f00b25ba' on 2021-06-10
          program call               : /home/jeff/miniconda3/bin/xtb input_structure_1.xyz --gfn 2 --ohess normal --parallel 1 --etemp 300 --chrg 0 --uhf 0 -I det_control.in
          number of atoms            :                    76
          number of electrons        :                   254
          charge                     :                     0
          spin                       :                   0.0

   ID    Z sym.   atoms
    1   26 Fe     1, 41
    2    6 C      2-9, 11-15, 17-21, 23, 24, 37-40, 42-49, 51-55, 57-61, 63,
                  64
    3    7 N      10, 16, 22, 25, 50, 56, 62, 65
    4    1 H      26-36, 66-76

          :  Hamiltonian                  GFN2-xTB          :
 * total energy  :  -133.4727397 Eh     change       -0.6768062E-08 Eh
 * total energy  :  -134.6431604 Eh     change       -0.1170421E+01 Eh
 * total energy  :  -134.8194941 Eh     change       -0.1763337E+00 Eh
 * total energy  :  -134.9182720 Eh     change       -0.9877798E-01 Eh
 * total energy  :  -134.9796953 Eh     change       -0.6142327E-01 Eh
 * total energy  :  -135.0245839 Eh     change       -0.4488856E-01 Eh
 * total energy  :  -135.0569450 Eh     change       -0.3236116E-01 Eh
 * total energy  :  -135.0778187 Eh     change       -0.2087365E-01 Eh
 * total energy  :  -135.0902474 Eh     change       -0.1242868E-01 Eh
 * total energy  :  -135.0983548 Eh     change       -0.8107395E-02 Eh
 * total energy  :  -135.1420576 Eh     change       -0.7998169E-05 Eh
 * total energy  :  -135.1420645 Eh     change       -0.6944667E-05 Eh
 * total energy  :  -135.1420725 Eh     change       -0.8007514E-05 Eh
 * total energy  :  -135.1420826 Eh     change       -0.1009416E-04 Eh
 * total energy  :  -135.1420959 Eh     change       -0.1325913E-04 Eh
 * total energy  :  -135.1421090 Eh     change       -0.1314057E-04 Eh
 * total energy  :  -135.1421206 Eh     change       -0.1156471E-04 Eh
 * total energy  :  -135.1421284 Eh     change       -0.7865964E-05 Eh
 * total energy  :  -135.1421328 Eh     change       -0.4352064E-05 Eh
   *** GEOMETRY OPTIMIZATION CONVERGED AFTER 53 ITERATIONS ***

 final structure:
================
76
 xtb: 6.4.1 (bd6e46d)
Fe        8.02845347577396   -0.05170315523961    0.05037148342130
C        10.52932972455786   -3.51511098268277    0.13833140151475
C        11.44854526304915   -2.52210567965592    0.15237861670406
C        10.72194639806991   -1.28531865676675    0.12620168212997
C        11.35981793613845   -0.03911521571106    0.13815517943506
C        10.71333750066491    1.20272440994726    0.13319931698990
C        11.43040127105056    2.44474656320628    0.16579611046496
C        10.50354521476861    3.43080768498085    0.15775890087303
C         9.22597603031322    2.78603705630187    0.11672521081289
N         9.36841132322545    1.42561421645242    0.10369599098284
C         8.01387454349829    3.44589371278577    0.08592950482524
C         6.80895675717271    2.77555558870360    0.03219894847888
C         5.52117088241067    3.40466721319157   -0.01499051284209
C         4.61011442731036    2.40718895599846   -0.06642780430019
C         5.34352515860584    1.17162114840382   -0.04787870099203
N         6.68688132764306    1.41595644981478    0.01167707472514
C         4.72646656125153   -0.06363559006637   -0.08146415966142
C         5.35283797264452   -1.29438244369783   -0.05555749098114
C         4.62869246074742   -2.53525956544198   -0.08245168241574
C         5.54717393420233   -3.52625880967647   -0.03752139029521
C         6.83013402569999   -2.88784443207127    0.01423252061400
N         6.69799960424842   -1.52914114616143    0.00261073809730
C         8.04018303857243   -3.54923126166188    0.06459993250520
C         9.24689780098339   -2.87994856143215    0.10016975203853
N         9.37875888896372   -1.51830239335912    0.09483177618789
H        10.68620044202414   -4.57616035235908    0.15083207116563
H        12.51806659372234   -2.59828018070841    0.17915677645718
H        12.49937955224846    2.52893905773809    0.19244717736296
H        10.65217299275296    4.49298902521667    0.17582573253859
H         8.01013809377705    4.52497300503420    0.09942632195335
H         5.35976134698070    4.46534126921021   -0.00976055137862
H         3.54023585998622    2.47711808085287   -0.11188350923463
H         3.64678192230120   -0.06773639998742   -0.12832613711680
H         3.55937368157740   -2.61292027418182   -0.12862183911414
H         5.39367643650761   -4.58811388127718   -0.03963410183448
H         8.04501810415085   -4.62833953679280    0.07151865496758
C        12.76167951950420   -0.03477960455834    0.15609783531243
C        13.97884648383654   -0.03751560024930    0.16675049297035
C        15.32261304156012   -0.03149420723118    0.15985456408394
C        16.53983356271562   -0.02651967840502    0.15223954546457
Fe       21.26770652091478    0.05416926539414   -0.06295794906800
C        18.72643033636353    3.48099498461087    0.16548812253494
C        17.82073380020653    2.47560613977936    0.18201570049115
C        18.56214268442547    1.24959347566358    0.10990235156924
C        17.94118127448018   -0.00538108766107    0.11595852752835
C        18.60429529259609   -1.23806859337753    0.09057250314116
C        17.90589517215860   -2.49006315532992    0.14238950426234
C        18.84626602237937   -3.46289777983193    0.11350548313919
C        20.11308020558889   -2.80020183694774    0.03692245185399
N        19.95109105297597   -1.44192974540666    0.02705824499984
C        21.33273083137842   -3.44287489234314   -0.03406914322710
C        22.52512053141749   -2.75559838090656   -0.13550245425048
C        23.81841440413261   -3.36631030275170   -0.23995188826261
C        24.71187036574224   -2.35603490035695   -0.33431116350015
C        23.96262910390100   -1.13100258376893   -0.28137726322570
N        22.62686204506999   -1.39441759734546   -0.16133575602873
C        24.56022898465813    0.11309279074260   -0.33615133203161
C        23.91934232034844    1.33472484281035   -0.26689165608746
C        24.62537934361898    2.58566656510466   -0.30608408022948
C        23.69740499508660    3.56313927407118   -0.20028509196674
C        22.42643824546279    2.90652225203944   -0.10210126565579
N        22.57532529629666    1.55012450757739   -0.14369178630383
C        21.21112525915349    3.55037630514267    0.01050799778526
C        20.01520241373425    2.86419412766634    0.07626912788844
N        19.90088827361254    1.50124334493318    0.04730180237429
H        18.55616882483374    4.53927166499429    0.20613820062329
H        16.75154997343411    2.53689573796101    0.24065123879188
H        16.83921802883361   -2.58919068610230    0.19735370267050
H        18.71327661262850   -4.52702906762809    0.13779852598876
H        21.35233126082756   -4.52179057002423   -0.01978079097010
H        23.99520172837830   -4.42453993518510   -0.24127265191843
H        25.77944757793218   -2.41092328635057   -0.42907257845088
H        25.63638343020214    0.13263571801554   -0.43334067660869
H        25.69032864804520    2.67879911541505   -0.39996006965737
H        23.83711429701598    4.62684407580783   -0.19010576124313
H        21.19278568686075    4.62901038509928    0.03844244015555

          :  Hamiltonian                  GFN2-xTB          :
         :: gradient norm              0.000545035682 Eh/a0 ::
         :: HOMO-LUMO gap              0.191701837836 eV    ::
         :: SCC energy              -137.514309663561 Eh    ::
         :: -> dispersion             -0.104005254841 Eh    ::
         :: repulsion energy           2.373277915981 Eh    ::

    * Orbital Energies and Occupations

         #    Occupation            Energy/Eh            Energy/eV
      -------------------------------------------------------------
         1        2.0000           -0.6657376             -18.1156
       ...           ...                  ...                  ...
       115        2.0000           -0.3971553             -10.8071
       116        2.0000           -0.3931342             -10.6977
       117        2.0000           -0.3839739             -10.4485
       118        2.0000           -0.3672635              -9.9937
       119        2.0000           -0.3631590              -9.8821
       120        2.0000           -0.3631511              -9.8818
       121        2.0000           -0.3522270              -9.5846
       122        2.0000           -0.3386509              -9.2152
       123        2.0000           -0.3386427              -9.2149
       124        2.0000           -0.3367210              -9.1626
       125        2.0000           -0.3364665              -9.1557
       126        1.9531           -0.3282108              -8.9311
       127        1.9520           -0.3281884              -8.9305 (HOMO)
       128        0.0477           -0.3211420              -8.7387 (LUMO)
       129        0.0472           -0.3211314              -8.7384
       130                         -0.3003396              -8.1727
       131                         -0.2898715              -7.8878
       132                         -0.2898557              -7.8874
       133                         -0.2856978              -7.7742
       134                         -0.2580596              -7.0222
       135                         -0.2496621              -6.7937
       136                         -0.2203816              -5.9969
       137                         -0.2198174              -5.9815
       138                         -0.2196774              -5.9777
       ...                                ...                  ...
       248                          1.6373469              44.5545
      -------------------------------------------------------------
                  HL-Gap            0.0070464 Eh            0.1917 eV

     #   Z          covCN         q      C6AA      α(0)
     1  26 Fe       3.081     0.560     5.147     7.319
     2   6 C        3.016    -0.056    29.371     8.890
     3   6 C        3.024    -0.053    29.284     8.876
     4   6 C        3.175     0.066    26.144     8.350
     5   6 C        2.955     0.008    27.830     8.653
     6   6 C        3.175     0.066    26.144     8.350
     7   6 C        3.024    -0.053    29.281     8.876
     8   6 C        3.016    -0.056    29.371     8.890
     9   6 C        3.168     0.069    26.114     8.349
    10   7 N        2.636    -0.215    25.688     7.527
    11   6 C        2.903    -0.058    29.432     8.895
    12   6 C        3.166     0.070    26.105     8.349
    13   6 C        3.013    -0.055    29.349     8.887
    14   6 C        3.024    -0.054    29.305     8.880
    15   6 C        3.155     0.066    26.238     8.376
    16   7 N        2.639    -0.213    25.644     7.521
    17   6 C        2.903    -0.062    29.540     8.912
    18   6 C        3.155     0.066    26.239     8.376
    19   6 C        3.024    -0.054    29.305     8.880
    20   6 C        3.013    -0.055    29.349     8.887
    21   6 C        3.166     0.070    26.104     8.349
    22   7 N        2.639    -0.213    25.644     7.521
    23   6 C        2.903    -0.058    29.432     8.895
    24   6 C        3.169     0.069    26.114     8.349
    25   7 N        2.636    -0.215    25.684     7.527
    26   1 H        0.926     0.031     2.579     2.511
    27   1 H        0.926     0.033     2.540     2.492
    28   1 H        0.926     0.033     2.541     2.493
    29   1 H        0.926     0.030     2.579     2.512
    30   1 H        0.926     0.048     2.348     2.396
    31   1 H        0.926     0.031     2.574     2.509
    32   1 H        0.926     0.030     2.582     2.513
    33   1 H        0.926     0.048     2.342     2.393
    34   1 H        0.926     0.030     2.582     2.513
    35   1 H        0.926     0.031     2.574     2.509
    36   1 H        0.926     0.048     2.348     2.396
    37   6 C        1.999    -0.022    31.631     9.083
    38   6 C        1.963    -0.013    31.423     9.053
    39   6 C        1.963    -0.013    31.422     9.052
    40   6 C        1.999    -0.022    31.633     9.083
    41  26 Fe       3.081     0.560     5.147     7.319
    42   6 C        3.016    -0.056    29.371     8.890
    43   6 C        3.024    -0.053    29.284     8.877
    44   6 C        3.175     0.066    26.144     8.350
    45   6 C        2.955     0.008    27.830     8.653
    46   6 C        3.175     0.066    26.145     8.351
    47   6 C        3.024    -0.053    29.280     8.876
    48   6 C        3.016    -0.056    29.371     8.890
    49   6 C        3.168     0.069    26.115     8.350
    50   7 N        2.636    -0.215    25.689     7.527
    51   6 C        2.903    -0.058    29.432     8.895
    52   6 C        3.165     0.070    26.106     8.350
    53   6 C        3.013    -0.055    29.348     8.887
    54   6 C        3.023    -0.054    29.305     8.880
    55   6 C        3.155     0.066    26.239     8.376
    56   7 N        2.639    -0.213    25.645     7.521
    57   6 C        2.903    -0.062    29.540     8.912
    58   6 C        3.155     0.066    26.239     8.376
    59   6 C        3.024    -0.054    29.305     8.880
    60   6 C        3.013    -0.055    29.349     8.887
    61   6 C        3.166     0.070    26.104     8.349
    62   7 N        2.639    -0.213    25.644     7.521
    63   6 C        2.903    -0.058    29.432     8.895
    64   6 C        3.169     0.069    26.114     8.349
    65   7 N        2.636    -0.215    25.684     7.527
    66   1 H        0.926     0.031     2.578     2.511
    67   1 H        0.926     0.033     2.540     2.492
    68   1 H        0.926     0.033     2.541     2.493
    69   1 H        0.926     0.030     2.579     2.512
    70   1 H        0.926     0.048     2.348     2.396
    71   1 H        0.926     0.031     2.574     2.509
    72   1 H        0.926     0.030     2.582     2.513
    73   1 H        0.926     0.048     2.342     2.393
    74   1 H        0.926     0.030     2.582     2.513
    75   1 H        0.926     0.031     2.574     2.509
    76   1 H        0.926     0.048     2.348     2.396

Wiberg/Mayer (AO) data.
largest (>0.10) Wiberg bond orders for each atom

     #   Z sym  total        # sym  WBO       # sym  WBO       # sym  WBO
 ---------------------------------------------------------------------------
     1  26 Fe   3.265 --    16 N    0.660    22 N    0.660    25 N    0.653
                            10 N    0.653
     2   6 C    3.958 --     3 C    1.646    24 C    1.172    26 H    0.972
     3   6 C    3.962 --     2 C    1.646     4 C    1.179    27 H    0.970
     4   6 C    3.923 --     5 C    1.262    25 N    1.248     3 C    1.179
     5   6 C    3.951 --     6 C    1.262     4 C    1.262    37 C    1.172
     6   6 C    3.923 --     5 C    1.262    10 N    1.248     7 C    1.179
     7   6 C    3.962 --     8 C    1.646     6 C    1.179    28 H    0.970
     8   6 C    3.958 --     7 C    1.646     9 C    1.172    29 H    0.972
     9   6 C    3.938 --    11 C    1.359    10 N    1.227     8 C    1.172
    10   7 N    3.413 --     6 C    1.248     9 C    1.227     1 Fe   0.653
    11   6 C    3.942 --    12 C    1.359     9 C    1.359    30 H    0.965
    12   6 C    3.942 --    11 C    1.359    16 N    1.235    13 C    1.164
    13   6 C    3.962 --    14 C    1.660    12 C    1.164    31 H    0.972
    14   6 C    3.960 --    13 C    1.660    15 C    1.162    32 H    0.972
    15   6 C    3.943 --    17 C    1.360    16 N    1.230    14 C    1.162
    16   7 N    3.411 --    12 C    1.235    15 C    1.230     1 Fe   0.660
    17   6 C    3.941 --    15 C    1.360    18 C    1.360    33 H    0.963
    18   6 C    3.943 --    17 C    1.360    22 N    1.230    19 C    1.162
    19   6 C    3.960 --    20 C    1.660    18 C    1.162    34 H    0.972
    20   6 C    3.962 --    19 C    1.660    21 C    1.165    35 H    0.972
    21   6 C    3.942 --    23 C    1.359    22 N    1.235    20 C    1.165
    22   7 N    3.411 --    21 C    1.235    18 C    1.230     1 Fe   0.660
    23   6 C    3.942 --    24 C    1.359    21 C    1.359    36 H    0.965
    24   6 C    3.938 --    23 C    1.359    25 N    1.226     2 C    1.172
    25   7 N    3.413 --     4 C    1.248    24 C    1.226     1 Fe   0.653
    26   1 H    0.998 --     2 C    0.972
    27   1 H    0.998 --     3 C    0.970
    28   1 H    0.998 --     7 C    0.970
    29   1 H    0.998 --     8 C    0.972
    30   1 H    0.997 --    11 C    0.965
    31   1 H    0.998 --    13 C    0.972
    32   1 H    0.998 --    14 C    0.972
    33   1 H    0.996 --    17 C    0.963
    34   1 H    0.998 --    19 C    0.972
    35   1 H    0.998 --    20 C    0.972
    36   1 H    0.997 --    23 C    0.965
    37   6 C    3.922 --    38 C    2.485     5 C    1.172    40 C    0.205
    38   6 C    3.933 --    37 C    2.485    39 C    1.296
    39   6 C    3.933 --    40 C    2.485    38 C    1.296
    40   6 C    3.922 --    39 C    2.485    45 C    1.172    37 C    0.205
    41  26 Fe   3.266 --    62 N    0.660    56 N    0.660    65 N    0.654
                            50 N    0.653
    42   6 C    3.958 --    43 C    1.646    64 C    1.172    66 H    0.972
    43   6 C    3.962 --    42 C    1.646    44 C    1.179    67 H    0.970
    44   6 C    3.923 --    45 C    1.262    65 N    1.248    43 C    1.179
    45   6 C    3.951 --    46 C    1.263    44 C    1.262    40 C    1.172
    46   6 C    3.923 --    45 C    1.263    50 N    1.248    47 C    1.179
    47   6 C    3.962 --    48 C    1.646    46 C    1.179    68 H    0.970
    48   6 C    3.958 --    47 C    1.646    49 C    1.172    69 H    0.972
    49   6 C    3.938 --    51 C    1.359    50 N    1.227    48 C    1.172
    50   7 N    3.413 --    46 C    1.248    49 C    1.227    41 Fe   0.653
    51   6 C    3.942 --    52 C    1.359    49 C    1.359    70 H    0.965
    52   6 C    3.942 --    51 C    1.359    56 N    1.235    53 C    1.165
    53   6 C    3.962 --    54 C    1.660    52 C    1.165    71 H    0.972
    54   6 C    3.960 --    53 C    1.660    55 C    1.162    72 H    0.972
    55   6 C    3.943 --    57 C    1.360    56 N    1.230    54 C    1.162
    56   7 N    3.411 --    52 C    1.235    55 C    1.230    41 Fe   0.660
    57   6 C    3.941 --    55 C    1.360    58 C    1.360    73 H    0.963
    58   6 C    3.943 --    57 C    1.360    62 N    1.230    59 C    1.162
    59   6 C    3.960 --    60 C    1.660    58 C    1.162    74 H    0.972
    60   6 C    3.962 --    59 C    1.660    61 C    1.165    75 H    0.972
    61   6 C    3.942 --    63 C    1.359    62 N    1.235    60 C    1.165
    62   7 N    3.411 --    61 C    1.235    58 C    1.230    41 Fe   0.660
    63   6 C    3.942 --    64 C    1.359    61 C    1.359    76 H    0.965
    64   6 C    3.938 --    63 C    1.359    65 N    1.226    42 C    1.172
    65   7 N    3.413 --    44 C    1.248    64 C    1.226    41 Fe   0.654
    66   1 H    0.998 --    42 C    0.972
    67   1 H    0.998 --    43 C    0.970
    68   1 H    0.998 --    47 C    0.970
    69   1 H    0.998 --    48 C    0.972
    70   1 H    0.997 --    51 C    0.965
    71   1 H    0.998 --    53 C    0.972
    72   1 H    0.998 --    54 C    0.972
    73   1 H    0.996 --    57 C    0.963
    74   1 H    0.998 --    59 C    0.972
    75   1 H    0.998 --    60 C    0.972
    76   1 H    0.997 --    63 C    0.965
 ---------------------------------------------------------------------------

molecular dipole:
                 x           y           z       tot (Debye)
 q only:        0.001       0.004      -0.023
   full:        0.000       0.005      -0.046       0.117

 projected vibrational frequencies (cm⁻¹)
eigval :       -0.00    -0.00     0.00     0.00     0.00     0.00
eigval :        3.02     8.28     8.61    15.71    29.58    29.96
eigval :       35.35    36.88    57.83    71.48    89.86    93.51
eigval :       97.46   121.64   121.83   128.53   154.06   157.43
eigval :      157.61   184.01   184.21   208.68   213.40   217.10
eigval :      220.93   221.26   222.64   226.80   228.83   233.43
eigval :      244.97   245.22   257.16   257.57   274.60   278.78
eigval :      279.02   308.33   310.36   317.99   323.31   325.52
eigval :      325.96   350.17   356.61   362.81   371.75   375.68
eigval :      381.67   385.61   387.48   388.00   393.27   393.39
eigval :      418.00   418.16   427.29   427.58   433.75   434.09
eigval :      459.54   459.95   507.81   511.23   518.22   618.31
eigval :      618.65   623.01   623.06   626.07   626.10   638.90
eigval :      639.00   643.54   643.75   658.15   658.21   663.32
eigval :      663.56   666.14   666.94   717.01   717.58   722.02
eigval :      722.14   755.89   758.60   759.06   763.29   778.76
eigval :      779.06   779.11   779.67   795.85   796.78   798.39
eigval :      798.52   803.36   803.60   809.59   810.09   815.85
eigval :      816.20   816.30   826.78   827.16   831.14   831.48
eigval :      836.86   837.10   840.18   840.56   841.82   842.62
eigval :      842.99   843.37   843.48   843.53   924.53   978.95
eigval :      981.04   987.52  1001.96  1001.99  1013.81  1016.98
eigval :     1017.08  1024.39  1024.41  1027.76  1031.61  1031.77
eigval :     1039.71  1039.90  1066.25  1066.40  1068.95  1069.88
eigval :     1070.53  1071.46  1072.30  1073.30  1124.99  1140.18
eigval :     1147.21  1147.25  1165.63  1174.93  1176.46  1176.50
eigval :     1212.90  1231.13  1231.21  1236.60  1237.07  1281.66
eigval :     1281.88  1299.55  1305.26  1307.69  1307.81  1312.67
eigval :     1312.77  1323.51  1327.03  1327.17  1328.40  1331.91
eigval :     1332.90  1347.09  1349.94  1360.52  1360.59  1393.79
eigval :     1456.35  1466.79  1470.67  1470.85  1478.56  1479.52
eigval :     1494.72  1494.96  1507.86  1508.49  1524.09  1524.98
eigval :     1529.85  1530.25  1542.77  1542.93  1555.15  1555.82
eigval :     1571.77  1571.98  1580.10  1580.87  1604.62  1604.86
eigval :     2239.52  2240.96  3079.90  3079.92  3095.09  3095.29
eigval :     3095.45  3095.60  3146.15  3146.38  3146.72  3146.82
eigval :     3152.79  3153.03  3153.48  3153.61  3160.58  3160.73
eigval :     3160.88  3161.33  3167.17  3167.63  3168.36  3168.75

   temp. (K)  partition function   enthalpy   heat capacity  entropy
                                   cal/mol     cal/K/mol   cal/K/mol   J/K/mol
 298.15  VIB  0.250E+20            24839.681    165.340    153.110
         ROT  0.176E+09              888.752      2.981     40.715
         INT  0.441E+28            25728.434    168.321    193.825
         TR   0.208E+29             1481.254      4.968     45.799
         TOT                       27209.6874   173.2893   239.6237  1002.5857

       T/K    H(0)-H(T)+PV         H(T)/Eh          T*S/Eh         G(T)/Eh
   ------------------------------------------------------------------------
    298.15    0.433614E-01    0.572067E+00    0.113853E+00    0.458214E+00
   ------------------------------------------------------------------------

         :::::::::::::::::::::::::::::::::::::::::::::::::::::
         ::                  THERMODYNAMIC                  ::
         :::::::::::::::::::::::::::::::::::::::::::::::::::::
         :: total free energy        -134.683918829726 Eh   ::
         ::.................................................::
         :: total energy             -135.142132779039 Eh   ::
         :: zero point energy           0.528705517081 Eh   ::
         :: G(RRHO) w/o ZPVE           -0.070491567767 Eh   ::
         :: G(RRHO) contrib.            0.458213949313 Eh   ::
         :::::::::::::::::::::::::::::::::::::::::::::::::::::

           -------------------------------------------------
          | TOTAL ENERGY             -135.142132779039 Eh   |
          | TOTAL ENTHALPY           -134.570065864938 Eh   |
          | TOTAL FREE ENERGY        -134.683918829726 Eh   |
          | GRADIENT NORM               0.000545400522 Eh/α |
          | HOMO-LUMO GAP               0.191743179724 eV   |
           -------------------------------------------------

 * finished run on 2021/11/19 at 10:42:51.538
