   * xtb version 6.4.1 (bd6e46d) compiled by 'conda@4901f00b25ba' on 2021-06-10
          program call               : /home/jeff/miniconda3/bin/xtb input_structure_1.xyz --gfn 2 --ohess normal --parallel 1 --etemp 300 --chrg 0 --uhf 0 -I det_control.in
          number of atoms            :                    76
          number of electrons        :                   234
          charge                     :                     0
          spin                       :                   0.0

   ID    Z sym.   atoms
    1    6 C      1-8, 10-14, 16-20, 22, 23, 38-47, 49-53, 55-59, 61, 62
    2    7 N      9, 15, 21, 24, 48, 54, 60, 63
    3    1 H      25-37, 64-76

          :  Hamiltonian                  GFN2-xTB          :
 * total energy  :  -126.2081571 Eh     change       -0.6042256E-08 Eh
 * total energy  :  -126.3231972 Eh     change       -0.1150401E+00 Eh
 * total energy  :  -126.3706956 Eh     change       -0.4749833E-01 Eh
 * total energy  :  -126.3936215 Eh     change       -0.2292593E-01 Eh
 * total energy  :  -126.4144263 Eh     change       -0.2080476E-01 Eh
 * total energy  :  -126.4312075 Eh     change       -0.1678125E-01 Eh
 * total energy  :  -126.4448134 Eh     change       -0.1360592E-01 Eh
 * total energy  :  -126.4556195 Eh     change       -0.1080610E-01 Eh
 * total energy  :  -126.4640872 Eh     change       -0.8467705E-02 Eh
 * total energy  :  -126.4710449 Eh     change       -0.6957702E-02 Eh
 * total energy  :  -126.5036854 Eh     change       -0.9055879E-05 Eh
 * total energy  :  -126.5036945 Eh     change       -0.9107259E-05 Eh
 * total energy  :  -126.5037041 Eh     change       -0.9622148E-05 Eh
 * total energy  :  -126.5037152 Eh     change       -0.1105043E-04 Eh
 * total energy  :  -126.5037282 Eh     change       -0.1304387E-04 Eh
 * total energy  :  -126.5037431 Eh     change       -0.1492270E-04 Eh
 * total energy  :  -126.5037590 Eh     change       -0.1584421E-04 Eh
 * total energy  :  -126.5037742 Eh     change       -0.1522729E-04 Eh
 * total energy  :  -126.5037764 Eh     change       -0.2168569E-05 Eh
   *** GEOMETRY OPTIMIZATION CONVERGED AFTER 94 ITERATIONS ***

 final structure:
================
76
 xtb: 6.4.1 (bd6e46d)
C         3.35942679105736   -3.01361132110897   -0.32599672239653
C         2.28798326488344   -2.19978007223046   -0.26032833166819
C         2.80984942557964   -0.87082118548848    0.00317843230137
C         1.99009377553205    0.26355742968430    0.15766593237271
C         2.47447061571887    1.56332142254842    0.37650623407941
C         1.71151963795936    2.74629363392154    0.56624601386203
C         2.58801305555082    3.77934327141796    0.73327458173026
C         3.90622330174556    3.24869739669533    0.65603415973047
N         3.78473660429471    1.90922752131686    0.44286257953347
C         5.09046726709616    3.96100122303436    0.77708751881497
C         6.38383992363804    3.45940366054567    0.74001088961483
C         7.55977940069547    4.30518546593554    0.88671636862183
C         8.62390183967283    3.48368167487354    0.82367253273573
C         8.08973784216742    2.14327558496428    0.63821676114298
N         6.74130931013451    2.16739854523085    0.58809627928697
C         8.88819241686939    1.01073955078996    0.53873452914154
C         8.42662991864314   -0.28407979504312    0.35961943198983
C         9.19113350675090   -1.48050595946679    0.24609311319807
C         8.31861946300151   -2.51254828651735    0.06582297148249
C         6.99864744276371   -1.97420452753094    0.06548690787875
N         7.11697763459545   -0.63282963839605    0.24895210743200
C         5.81568185482820   -2.67770481884891   -0.10372218754730
C         4.52396736088719   -2.17198956996273   -0.10901195444444
N         4.15182423698325   -0.88352322939818    0.07902790189175
H         3.39432877057405   -4.07119361175226   -0.50453676652358
H         1.24973174457735   -2.43543373922752   -0.38810771890159
H         0.64016706855075    2.78527736723421    0.58571028005444
H         2.35393629425383    4.81277968689399    0.90002641590935
H         4.54851354689175    1.24935441836219    0.35173882489015
H         4.99078543140147    5.02739961910254    0.92572556214080
H         7.53288653141301    5.37011594374146    1.01767211572474
H         9.66842994951333    3.72074133055323    0.89142916160571
H         9.95743992307440    1.15024386997347    0.60592788071740
H        10.26155700968132   -1.52943899961934    0.29618494414179
H         8.55283424778021   -3.55229018029312   -0.05693816421454
H         6.35569283370183    0.03354003472351    0.29767149377666
H         5.91262246260306   -3.74435596293898   -0.25302550639947
C         0.60053679850516    0.09567931238491    0.09103437801870
C        -0.60379332305423   -0.04478961814081    0.04067751296609
C        -8.31962018688282    2.35386667718222   -1.19364078149011
C        -9.17432341001970    1.33192963331955   -1.00295862556454
C        -8.35703069005790    0.18185555140204   -0.64851333032484
C        -8.88356886144531   -1.07577681614349   -0.38175827170526
C        -8.14561322164266   -2.19867111805158   -0.04074350492611
C        -8.62313419748071   -3.50931857169545    0.24704976727367
C        -7.54271370829714   -4.28662890319881    0.54267628479318
C        -6.37722169587332   -3.47181278641934    0.44299374451002
N        -6.79207803581389   -2.22775161160376    0.08653633591336
C        -5.06839570254290   -3.86445757916589    0.67916605974395
C        -3.92258690282495   -3.08720884277082    0.59410215153189
C        -2.60239412074723   -3.61140089846472    0.90046596836206
C        -1.73921077962587   -2.59468269676244    0.71117969374308
C        -2.54134812221185   -1.46235443248698    0.28436512072814
N        -3.84533032043176   -1.78446839866243    0.23227326573270
C        -1.99444655312702   -0.20262520154797   -0.02680534656405
C        -2.75548367939940    0.91648534825469   -0.40120834310715
C        -2.27681128609739    2.20882878645928   -0.74498994354852
C        -3.36132624622414    2.98700965515797   -1.03053816168653
C        -4.52643912128798    2.18481783721580   -0.87408861504625
N        -4.10867782860821    0.94511080646776   -0.49610375326501
C        -5.83836586640557    2.58955103235590   -1.07268238645119
C        -6.98670505953606    1.81945499660723   -0.95377989475442
N        -7.04866621499513    0.51240623200174   -0.62557409866459
H        -8.52932055097258    3.37033213523941   -1.46713178350590
H       -10.24438699529112    1.31877370940913   -1.08437470111529
H        -9.95622800237288   -1.18834847292028   -0.44470679926771
H        -9.65484238379059   -3.80243456788928    0.22802385931707
H        -7.53863144509536   -5.32641889858041    0.80688383535014
H        -6.20062286445963   -1.41975828791713   -0.06651933009785
H        -4.92575870088200   -4.89647396131522    0.96911894375690
H        -2.40242320702076   -4.61693153868409    1.21748221222076
H        -0.67644581871508   -2.57356117090993    0.85228452451962
H        -1.24202091829033    2.48761378858251   -0.77954608837530
H        -3.36449856970540    4.01807465021549   -1.32628557763155
H        -4.70350241383471    0.14509160609349   -0.31340170937203
H        -5.97852249852476    3.62272586139229   -1.35933118584986

          :  Hamiltonian                  GFN2-xTB          :
         :: gradient norm              0.000274539012 Eh/a0 ::
         :: HOMO-LUMO gap              1.123478512482 eV    ::
         :: SCC energy              -128.786259637185 Eh    ::
         :: -> dispersion             -0.104979694203 Eh    ::
         :: repulsion energy           2.283639906784 Eh    ::

    * Orbital Energies and Occupations

         #    Occupation            Energy/Eh            Energy/eV
      -------------------------------------------------------------
         1        2.0000           -0.6830385             -18.5864
       ...           ...                  ...                  ...
       105        2.0000           -0.4043354             -11.0025
       106        2.0000           -0.3913781             -10.6499
       107        2.0000           -0.3893405             -10.5945
       108        2.0000           -0.3869377             -10.5291
       109        2.0000           -0.3869027             -10.5282
       110        2.0000           -0.3707696             -10.0892
       111        2.0000           -0.3707494             -10.0886
       112        2.0000           -0.3699855             -10.0678
       113        2.0000           -0.3699631             -10.0672
       114        2.0000           -0.3677773             -10.0077
       115        2.0000           -0.3674726              -9.9994
       116        2.0000           -0.3632737              -9.8852
       117        2.0000           -0.3487942              -9.4912 (HOMO)
       118                         -0.3075071              -8.3677 (LUMO)
       119                         -0.2967593              -8.0752
       120                         -0.2963535              -8.0642
       121                         -0.2903662              -7.9013
       122                         -0.2607542              -7.0955
       123                         -0.2515281              -6.8444
       124                         -0.1901394              -5.1740
       125                         -0.1887136              -5.1352
       126                         -0.1772540              -4.8233
       127                         -0.1714132              -4.6644
       128                         -0.1672292              -4.5505
       ...                                ...                  ...
       226                          1.4099240              38.3660
      -------------------------------------------------------------
                  HL-Gap            0.0412871 Eh            1.1235 eV

     #   Z          covCN         q      C6AA      α(0)
     1   6 C        3.016    -0.055    29.341     8.885
     2   6 C        3.010    -0.053    29.287     8.877
     3   6 C        3.193     0.087    25.597     8.251
     4   6 C        2.952     0.013    27.722     8.636
     5   6 C        3.095     0.063    26.475     8.433
     6   6 C        3.027    -0.050    29.223     8.867
     7   6 C        3.033    -0.052    29.265     8.873
     8   6 C        3.073     0.064    26.490     8.439
     9   7 N        2.786    -0.081    22.812     7.094
    10   6 C        2.899    -0.055    29.377     8.887
    11   6 C        3.171     0.087    25.721     8.285
    12   6 C        3.012    -0.054    29.319     8.882
    13   6 C        3.010    -0.054    29.321     8.882
    14   6 C        3.174     0.086    25.708     8.281
    15   7 N        1.870    -0.321    29.182     8.007
    16   6 C        2.899    -0.057    29.419     8.893
    17   6 C        3.074     0.065    26.471     8.436
    18   6 C        3.026    -0.051    29.243     8.870
    19   6 C        3.031    -0.051    29.233     8.869
    20   6 C        3.068     0.066    26.465     8.435
    21   7 N        2.787    -0.081    22.819     7.095
    22   6 C        2.899    -0.055    29.372     8.886
    23   6 C        3.174     0.086    25.726     8.284
    24   7 N        1.870    -0.325    29.271     8.020
    25   1 H        0.926     0.019     2.754     2.595
    26   1 H        0.926     0.021     2.715     2.577
    27   1 H        0.926     0.041     2.433     2.439
    28   1 H        0.926     0.041     2.436     2.441
    29   1 H        0.860     0.214     1.036     1.595
    30   1 H        0.925     0.047     2.364     2.404
    31   1 H        0.926     0.019     2.747     2.592
    32   1 H        0.926     0.019     2.746     2.591
    33   1 H        0.926     0.046     2.374     2.409
    34   1 H        0.926     0.042     2.427     2.436
    35   1 H        0.926     0.042     2.428     2.436
    36   1 H        0.860     0.214     1.036     1.594
    37   1 H        0.925     0.047     2.360     2.402
    38   6 C        1.993    -0.031    31.863     9.116
    39   6 C        1.993    -0.031    31.864     9.116
    40   6 C        3.012    -0.054    29.319     8.882
    41   6 C        3.009    -0.054    29.321     8.882
    42   6 C        3.174     0.086    25.709     8.281
    43   6 C        2.899    -0.057    29.419     8.893
    44   6 C        3.074     0.065    26.472     8.436
    45   6 C        3.025    -0.051    29.243     8.870
    46   6 C        3.031    -0.051    29.233     8.869
    47   6 C        3.068     0.066    26.464     8.435
    48   7 N        2.787    -0.081    22.820     7.095
    49   6 C        2.899    -0.055    29.371     8.886
    50   6 C        3.174     0.086    25.727     8.284
    51   6 C        3.016    -0.055    29.341     8.885
    52   6 C        3.010    -0.053    29.287     8.877
    53   6 C        3.193     0.087    25.597     8.251
    54   7 N        1.870    -0.325    29.270     8.020
    55   6 C        2.952     0.013    27.723     8.636
    56   6 C        3.095     0.063    26.476     8.433
    57   6 C        3.027    -0.050    29.223     8.867
    58   6 C        3.034    -0.052    29.265     8.873
    59   6 C        3.072     0.064    26.489     8.439
    60   7 N        2.786    -0.081    22.813     7.094
    61   6 C        2.899    -0.055    29.377     8.887
    62   6 C        3.170     0.087    25.721     8.285
    63   7 N        1.870    -0.321    29.181     8.007
    64   1 H        0.926     0.019     2.747     2.592
    65   1 H        0.926     0.019     2.746     2.591
    66   1 H        0.926     0.046     2.374     2.409
    67   1 H        0.926     0.042     2.428     2.436
    68   1 H        0.926     0.042     2.428     2.436
    69   1 H        0.860     0.214     1.036     1.594
    70   1 H        0.925     0.047     2.360     2.402
    71   1 H        0.926     0.019     2.755     2.595
    72   1 H        0.926     0.021     2.715     2.577
    73   1 H        0.926     0.041     2.434     2.439
    74   1 H        0.926     0.041     2.436     2.441
    75   1 H        0.860     0.214     1.036     1.595
    76   1 H        0.925     0.047     2.364     2.404

Wiberg/Mayer (AO) data.
largest (>0.10) Wiberg bond orders for each atom

     #   Z sym  total        # sym  WBO       # sym  WBO       # sym  WBO
 ---------------------------------------------------------------------------
     1   6 C    3.961 --     2 C    1.717    23 C    1.115    25 H    0.973
     2   6 C    3.962 --     1 C    1.717     3 C    1.121    26 H    0.968
     3   6 C    3.922 --    24 N    1.358     4 C    1.251     2 C    1.121
     4   6 C    3.940 --     5 C    1.253     3 C    1.251    38 C    1.177
     5   6 C    3.907 --     4 C    1.253     6 C    1.237     9 N    1.225
     6   6 C    3.956 --     7 C    1.592     5 C    1.237    27 H    0.969
     7   6 C    3.948 --     6 C    1.592     8 C    1.224    28 H    0.973
     8   6 C    3.918 --    10 C    1.343     7 C    1.224     9 N    1.203
     9   7 N    3.590 --     5 C    1.225     8 C    1.203    29 H    0.900
    10   6 C    3.922 --    11 C    1.358     8 C    1.343    30 H    0.964
    11   6 C    3.939 --    10 C    1.358    15 N    1.323    12 C    1.107
    12   6 C    3.963 --    13 C    1.731    11 C    1.107    31 H    0.973
    13   6 C    3.962 --    12 C    1.731    14 C    1.109    32 H    0.973
    14   6 C    3.938 --    16 C    1.353    15 N    1.326    13 C    1.109
    15   7 N    3.002 --    14 C    1.326    11 C    1.323
    16   6 C    3.924 --    14 C    1.353    17 C    1.347    33 H    0.965
    17   6 C    3.921 --    16 C    1.347    18 C    1.215    21 N    1.210
    18   6 C    3.949 --    19 C    1.609    17 C    1.215    34 H    0.973
    19   6 C    3.953 --    18 C    1.609    20 C    1.215    35 H    0.973
    20   6 C    3.916 --    22 C    1.343    19 C    1.215    21 N    1.211
    21   7 N    3.586 --    20 C    1.211    17 C    1.210    36 H    0.900
    22   6 C    3.937 --    23 C    1.365    20 C    1.343    37 H    0.964
    23   6 C    3.925 --    22 C    1.365    24 N    1.302     1 C    1.115
    24   7 N    3.010 --     3 C    1.358    23 C    1.302
    25   1 H    0.999 --     1 C    0.973
    26   1 H    0.999 --     2 C    0.968
    27   1 H    0.998 --     6 C    0.969
    28   1 H    0.998 --     7 C    0.973
    29   1 H    0.954 --     9 N    0.900
    30   1 H    0.997 --    10 C    0.964
    31   1 H    0.999 --    12 C    0.973
    32   1 H    0.999 --    13 C    0.973
    33   1 H    0.997 --    16 C    0.965
    34   1 H    0.998 --    18 C    0.973
    35   1 H    0.998 --    19 C    0.973
    36   1 H    0.954 --    21 N    0.900
    37   1 H    0.997 --    22 C    0.964
    38   6 C    3.924 --    39 C    2.570     4 C    1.177
    39   6 C    3.924 --    38 C    2.570    55 C    1.177
    40   6 C    3.963 --    41 C    1.731    62 C    1.107    64 H    0.973
    41   6 C    3.962 --    40 C    1.731    42 C    1.109    65 H    0.973
    42   6 C    3.938 --    43 C    1.353    63 N    1.326    41 C    1.109
    43   6 C    3.924 --    42 C    1.353    44 C    1.347    66 H    0.965
    44   6 C    3.921 --    43 C    1.347    45 C    1.215    48 N    1.210
    45   6 C    3.949 --    46 C    1.609    44 C    1.215    67 H    0.973
    46   6 C    3.953 --    45 C    1.609    47 C    1.215    68 H    0.973
    47   6 C    3.916 --    49 C    1.343    46 C    1.215    48 N    1.211
    48   7 N    3.586 --    47 C    1.211    44 C    1.210    69 H    0.900
    49   6 C    3.937 --    50 C    1.365    47 C    1.343    70 H    0.964
    50   6 C    3.925 --    49 C    1.365    54 N    1.302    51 C    1.115
    51   6 C    3.961 --    52 C    1.717    50 C    1.115    71 H    0.973
    52   6 C    3.962 --    51 C    1.717    53 C    1.121    72 H    0.968
    53   6 C    3.922 --    54 N    1.358    55 C    1.251    52 C    1.121
    54   7 N    3.010 --    53 C    1.358    50 C    1.302
    55   6 C    3.940 --    56 C    1.253    53 C    1.251    39 C    1.177
    56   6 C    3.907 --    55 C    1.253    57 C    1.237    60 N    1.225
    57   6 C    3.956 --    58 C    1.592    56 C    1.237    73 H    0.969
    58   6 C    3.948 --    57 C    1.592    59 C    1.224    74 H    0.973
    59   6 C    3.918 --    61 C    1.343    58 C    1.224    60 N    1.203
    60   7 N    3.590 --    56 C    1.225    59 C    1.203    75 H    0.900
    61   6 C    3.922 --    62 C    1.358    59 C    1.343    76 H    0.964
    62   6 C    3.939 --    61 C    1.358    63 N    1.323    40 C    1.107
    63   7 N    3.002 --    42 C    1.326    62 C    1.323
    64   1 H    0.999 --    40 C    0.973
    65   1 H    0.999 --    41 C    0.973
    66   1 H    0.997 --    43 C    0.965
    67   1 H    0.998 --    45 C    0.973
    68   1 H    0.998 --    46 C    0.973
    69   1 H    0.954 --    48 N    0.900
    70   1 H    0.997 --    49 C    0.964
    71   1 H    0.999 --    51 C    0.973
    72   1 H    0.999 --    52 C    0.968
    73   1 H    0.998 --    57 C    0.969
    74   1 H    0.998 --    58 C    0.973
    75   1 H    0.954 --    60 N    0.900
    76   1 H    0.997 --    61 C    0.964
 ---------------------------------------------------------------------------

molecular dipole:
                 x           y           z       tot (Debye)
 q only:        0.005      -0.045       0.006
   full:        0.005      -0.046       0.007       0.118

 projected vibrational frequencies (cm⁻¹)
eigval :       -0.00    -0.00    -0.00    -0.00    -0.00     0.00
eigval :        9.67    10.96    12.19    31.89    41.53    42.12
eigval :       48.04    51.87    63.92    68.74    79.65    94.55
eigval :      101.13   111.27   116.48   118.59   123.17   142.34
eigval :      142.97   169.64   182.81   186.19   186.71   201.69
eigval :      202.64   204.23   245.19   263.21   265.38   266.80
eigval :      267.40   285.27   297.23   300.93   303.72   334.94
eigval :      338.17   345.21   349.21   359.16   362.11   362.23
eigval :      366.55   371.06   394.20   394.90   420.11   423.11
eigval :      430.31   431.06   446.14   448.02   499.12   513.11
eigval :      593.70   601.30   601.70   605.87   606.30   627.38
eigval :      628.41   636.97   637.08   647.09   647.25   650.88
eigval :      651.15   653.72   653.91   659.10   660.92   668.43
eigval :      672.31   713.83   714.42   722.79   723.33   729.37
eigval :      731.19   741.54   742.65   748.00   748.50   760.84
eigval :      761.05   768.94   772.46   786.02   795.20   798.20
eigval :      798.62   805.39   806.66   811.40   813.31   818.45
eigval :      820.11   827.31   828.08   834.61   838.36   838.73
eigval :      839.95   841.68   842.43   842.46   847.03   851.09
eigval :      852.29   852.32   856.55   887.56   946.23   959.53
eigval :      960.20   972.47   972.84   976.76   977.26   998.67
eigval :     1000.24  1006.92  1008.02  1015.39  1016.45  1030.89
eigval :     1033.08  1051.66  1056.62  1061.85  1063.56  1063.75
eigval :     1068.49  1071.08  1073.01  1076.71  1097.78  1120.39
eigval :     1121.86  1127.98  1141.21  1154.44  1160.30  1175.28
eigval :     1181.21  1183.81  1184.15  1194.74  1204.69  1211.75
eigval :     1231.71  1235.44  1254.77  1257.94  1284.69  1286.05
eigval :     1305.24  1305.30  1338.59  1339.20  1345.94  1347.43
eigval :     1348.63  1364.93  1373.59  1375.33  1376.41  1383.35
eigval :     1384.02  1388.82  1388.94  1395.98  1406.82  1454.10
eigval :     1466.03  1477.66  1479.65  1488.44  1504.26  1505.65
eigval :     1506.31  1509.23  1510.16  1514.64  1515.00  1550.01
eigval :     1551.19  1555.99  1556.20  1560.51  1561.35  1585.93
eigval :     1586.40  1594.66  1594.90  2256.53  3076.54  3076.76
eigval :     3077.47  3077.62  3086.42  3086.72  3139.74  3139.83
eigval :     3145.82  3146.11  3154.83  3155.22  3156.44  3156.46
eigval :     3160.49  3160.63  3165.74  3166.70  3168.82  3169.18
eigval :     3173.90  3175.58  3347.96  3349.31  3356.79  3358.00

   temp. (K)  partition function   enthalpy   heat capacity  entropy
                                   cal/mol     cal/K/mol   cal/K/mol   J/K/mol
 298.15  VIB  0.113E+18            22750.401    153.790    140.566
         ROT  0.567E+08              888.752      2.981     38.459
         INT  0.642E+25            23639.154    156.771    179.025
         TR   0.158E+29             1481.254      4.968     45.243
         TOT                       25120.4075   161.7395   224.2686   938.3398

       T/K    H(0)-H(T)+PV         H(T)/Eh          T*S/Eh         G(T)/Eh
   ------------------------------------------------------------------------
    298.15    0.400319E-01    0.600004E+00    0.106557E+00    0.493447E+00
   ------------------------------------------------------------------------

         :::::::::::::::::::::::::::::::::::::::::::::::::::::
         ::                  THERMODYNAMIC                  ::
         :::::::::::::::::::::::::::::::::::::::::::::::::::::
         :: total free energy        -126.010329760932 Eh   ::
         ::.................................................::
         :: total energy             -126.503776378712 Eh   ::
         :: zero point energy           0.559971943359 Eh   ::
         :: G(RRHO) w/o ZPVE           -0.066525325578 Eh   ::
         :: G(RRHO) contrib.            0.493446617780 Eh   ::
         :::::::::::::::::::::::::::::::::::::::::::::::::::::

           -------------------------------------------------
          | TOTAL ENERGY             -126.503776378712 Eh   |
          | TOTAL ENTHALPY           -125.903772517849 Eh   |
          | TOTAL FREE ENERGY        -126.010329760932 Eh   |
          | GRADIENT NORM               0.000274430085 Eh/α |
          | HOMO-LUMO GAP               1.123478803702 eV   |
           -------------------------------------------------

 * finished run on 2021/11/18 at 17:16:52.763
