   * xtb version 6.4.1 (bd6e46d) compiled by 'conda@4901f00b25ba' on 2021-06-10
          program call               : /home/jeff/miniconda3/bin/xtb input_structure_1.xyz --gfn 2 --ohess normal --parallel 1 --etemp 300 --chrg 0 --uhf 0 -I det_control.in
          number of atoms            :                   115
          number of electrons        :                   388
          charge                     :                     0
          spin                       :                   0.0

   ID    Z sym.   atoms
    1   26 Fe     1, 37, 81
    2    6 C      2-9, 11-15, 17-21, 23, 24, 38-45, 47-51, 53-57, 59, 60,
                  73-80, 82-89, 91-95, 97-101, 103, 104
    3    7 N      10, 16, 22, 25, 46, 52, 58, 61, 90, 96, 102, 105
    4    1 H      26-36, 62-72, 106-115

          :  Hamiltonian                  GFN2-xTB          :
 * total energy  :  -205.4596989 Eh     change       -0.4130030E-07 Eh
 * total energy  :  -205.6504538 Eh     change       -0.1907550E+00 Eh
 * total energy  :  -205.7575984 Eh     change       -0.1071446E+00 Eh
 * total energy  :  -205.8125435 Eh     change       -0.5494510E-01 Eh
 * total energy  :  -205.8555538 Eh     change       -0.4301028E-01 Eh
 * total energy  :  -205.8917659 Eh     change       -0.3621207E-01 Eh
 * total energy  :  -205.9193487 Eh     change       -0.2758287E-01 Eh
 * total energy  :  -205.9391751 Eh     change       -0.1982631E-01 Eh
 * total energy  :  -205.9550105 Eh     change       -0.1583541E-01 Eh
 * total energy  :  -205.9717226 Eh     change       -0.1671212E-01 Eh
 * total energy  :  -206.4480148 Eh     change       -0.7448677E-03 Eh
 * total energy  :  -206.4484940 Eh     change       -0.4792188E-03 Eh
 * total energy  :  -206.4488548 Eh     change       -0.3607198E-03 Eh
 * total energy  :  -206.4491189 Eh     change       -0.2641642E-03 Eh
 * total energy  :  -206.4493713 Eh     change       -0.2523953E-03 Eh
 * total energy  :  -206.4495312 Eh     change       -0.1599260E-03 Eh
 * total energy  :  -206.4495982 Eh     change       -0.6699459E-04 Eh
 * total energy  :  -206.4496291 Eh     change       -0.3090812E-04 Eh
 * total energy  :  -206.4496332 Eh     change       -0.4020183E-05 Eh
   *** GEOMETRY OPTIMIZATION CONVERGED AFTER 56 ITERATIONS ***

 final structure:
================
115
 xtb: 6.4.1 (bd6e46d)
Fe       14.30074693021175   -0.00123694097128   -0.00911535514435
C        16.80557042389529   -3.38677027022047    0.02565249450826
C        17.79582165866771   -2.46371498188435    0.02381348851225
C        17.15257846294844   -1.18562282072806    0.01241374858238
C        17.82616379347982    0.03966630253129    0.00754977896742
C        17.12445954124372    1.24884638085112    0.00080313689531
C        17.73819995017112    2.54131021807252    0.00323731180007
C        16.72696244860601    3.44131187788235   -0.00123980881791
C        15.50323429738278    2.69259561767760   -0.00757530935240
N        15.76749020022531    1.34807560231058   -0.00537781070672
C        14.26054032622588    3.29540957322195   -0.01729253420924
C        13.03370256548644    2.66145822469744   -0.02709470991365
C        11.78931984719180    3.37957111897176   -0.04107231168725
C        10.80321774367687    2.45474064859127   -0.04819708851771
C        11.44816969582213    1.17379989930839   -0.03790001736794
N        12.80571699934573    1.31319163743583   -0.02571434071372
C        10.79238319669874   -0.04124752950498   -0.03840703255308
C        11.47608941336976   -1.24074064111546   -0.02573312410675
C        10.86063866329718   -2.53615950230014   -0.02260229375963
C        11.86764645741275   -3.43806907690437   -0.00816024212610
C        13.09527260263433   -2.69157979412159   -0.00284845371211
N        12.83651821361175   -1.34887788074985   -0.01352198359205
C        14.33624914932569   -3.29733280025995    0.01041713120864
C        15.56495241797713   -2.66634228701709    0.01448383314326
N        15.79825154242481   -1.31606180818189    0.00677784817906
H        16.88787115277583   -4.45654204160560    0.03356890283469
H        18.85828489274119   -2.61122542192350    0.02979085224022
H        18.79710073149399    2.71302981112887    0.00855602097586
H        16.78450025126004    4.51272427857240   -0.00072206818251
H        14.24800309967398    4.37619753442246   -0.01863181065776
H        11.70599920916820    4.44947917811734   -0.04493349362500
H         9.74062642817599    2.60271176537617   -0.05883975971417
H         9.71354274140185   -0.05381467617072   -0.04796399312633
H         9.80169596901293   -2.70845209792794   -0.03047541343908
H        11.80888843550286   -4.50959638540771   -0.00174179309262
H        14.34835239543797   -4.37810586241968    0.01738752885496
Fe       41.55049308400330    0.03104692401876   -0.00665598813729
C        39.05544598217730    3.36650844708950    0.61674033793983
C        38.06249298021269    2.46177498426645    0.44911401615498
C        38.70217106567616    1.20278823639694    0.21737345051714
C        38.02502300022625   -0.00180011621328    0.00414675966503
C        38.72301780727033   -1.19387945123426   -0.21027022664381
C        38.10553527433871   -2.46493148526813   -0.43457620223771
C        39.11405105992223   -3.35194260079404   -0.60390900610831
C        40.33999641077646   -2.61657476404178   -0.48277324081663
N        40.07975790267250   -1.29340158390261   -0.23971016644640
C        41.58086745398344   -3.21016704163858   -0.60779308319690
C        42.80949066953807   -2.58740772036143   -0.50865416063102
C        44.05166729362726   -3.29372070507888   -0.65828736312023
C        45.04049454065279   -2.38574911204709   -0.49835227354073
C        44.39940828480651   -1.12694802227152   -0.25096227179794
N        43.04145435531982   -1.26266694962476   -0.26152041660393
C        45.05891048791024    0.06530720544740   -0.02741321111933
C        44.37882579631458    1.24410356032707    0.20551793973913
C        44.99807905504894    2.51489700890593    0.44739969483394
C        43.99367402687525    3.40271519352877    0.62246412675866
C        42.76382620650793    2.67233979739228    0.48674418394297
N        43.01868522297904    1.35298087741021    0.23341671438993
C        41.52461577109324    3.27100437211676    0.60122872195600
C        40.29403700841682    2.65444165936383    0.48529493547145
N        40.05687562994235    1.32743287688183    0.23934172813027
H        38.97623756927906    4.41852634750589    0.81186500405099
H        37.00047056772964    2.60971147658868    0.47752851875478
H        37.04609940622539   -2.63244100834233   -0.45615386251003
H        39.05331089610684   -4.40622760140355   -0.79434059794827
H        41.59026355511357   -4.27292175193094   -0.80457794481710
H        44.13180291907431   -4.34491701501813   -0.85879556087223
H        46.10260249573445   -2.53185340734879   -0.53916996983659
H        46.13779022633088    0.07604196865259   -0.03431254205778
H        46.05754840754245    2.68188453990510    0.47478592177551
H        44.05551325687853    4.45486867535789    0.82440847119905
H        41.51570538564195    4.33314868068481    0.80129165829757
C        19.22257370733641    0.05464799892942    0.00955581003783
C        20.44021165637587    0.06364694076202    0.00845051631546
C        21.78260139382666    0.06715853996596    0.00737626750055
C        23.00036530767664    0.06544562728298    0.00395457447140
C        32.85058983254283   -0.01705424556548   -0.00332021050741
C        34.06826759622007   -0.02147769310779   -0.00027479301932
C        35.41078779687721   -0.02058299241263    0.00205108167522
C        36.62837828631034   -0.01251502279771    0.00423280332512
Fe       27.92537038381364    0.02352459273891   -0.00706024091717
C        25.42864170640608   -3.34606984517241    0.38744439668370
C        24.43527758146491   -2.43134000337625    0.29050155117963
C        25.07432586297898   -1.16004110719710    0.14018906352064
C        24.39629201097719    0.05523531280020    0.00130678484103
C        25.09524996109220    1.25779338102613   -0.14323745712888
C        24.47854148167940    2.53954885169198   -0.29713319642996
C        25.48787034145271    3.43541991213623   -0.40486223695422
C        26.71280801519802    2.69476841885549   -0.31537769629289
N        26.45140408225560    1.35891732047436   -0.15657998609663
C        27.95396143203629    3.29660975230304   -0.38160043824453
C        29.18457951417717    2.67496776910015   -0.30433539407982
C        30.42243727331224    3.39577658452036   -0.37999654275425
C        31.41575100016607    2.48211612812981   -0.27317231158288
C        30.77661165969166    1.20958928383677   -0.13376879377727
N        29.42245598134228    1.33388698958156   -0.15250104555813
C        31.45447662885860   -0.00690042446092   -0.00576322420058
C        30.75555048180986   -1.21180820674324    0.11758250139127
C        31.37232050518401   -2.49623880635443    0.24841509555106
C        30.36301950375590   -3.39306230448510    0.34797789457856
C        29.13805973506681   -2.65025589667081    0.27758294478074
N        29.39942327041388   -1.31263566259180    0.13417815876913
C        27.89691763900335   -3.25089878063753    0.35373494667718
C        26.66638760366049   -2.62698470499140    0.29607723831883
N        26.42842365913186   -1.28570959631730    0.14586804128569
H        25.35020593746924   -4.40920442970195    0.50926610125768
H        23.37328561329758   -2.58027801738205    0.31550010537417
H        23.41934025104351    2.70750660415864   -0.31775738839126
H        25.42827724953160    4.49888257672358   -0.53314749548544
H        27.96313564778534    4.37028478591024   -0.50635867288444
H        30.50099309643435    4.45922083985768   -0.49944241279408
H        32.47781550540797    2.63238396795895   -0.28664030345454
H        32.43146065190453   -2.66510637722398    0.26069543256615
H        30.42265668110158   -4.45842599699073    0.45918754471219
H        27.88766157030878   -4.32536340933460    0.47148756212141

          :  Hamiltonian                  GFN2-xTB          :
         :: gradient norm              0.000733082643 Eh/a0 ::
         :: HOMO-LUMO gap              0.237240848752 eV    ::
         :: SCC energy              -210.141392158350 Eh    ::
         :: -> dispersion             -0.161306509018 Eh    ::
         :: repulsion energy           3.694004933552 Eh    ::

    * Orbital Energies and Occupations

         #    Occupation            Energy/Eh            Energy/eV
      -------------------------------------------------------------
         1        2.0000           -0.6673029             -18.1582
       ...           ...                  ...                  ...
       182        2.0000           -0.3637841              -9.8991
       183        2.0000           -0.3637809              -9.8990
       184        2.0000           -0.3593723              -9.7790
       185        2.0000           -0.3493935              -9.5075
       186        2.0000           -0.3388539              -9.2207
       187        2.0000           -0.3386184              -9.2143
       188        2.0000           -0.3385719              -9.2130
       189        2.0000           -0.3374055              -9.1813
       190        2.0000           -0.3371710              -9.1749
       191        2.0000           -0.3371692              -9.1748
       192        1.9872           -0.3297399              -8.9727
       193        1.9790           -0.3292626              -8.9597
       194        1.9789           -0.3292616              -8.9597 (HOMO)
       195        0.0192           -0.3205406              -8.7224 (LUMO)
       196        0.0179           -0.3204718              -8.7205
       197        0.0179           -0.3204712              -8.7205
       198                         -0.3058845              -8.3235
       199                         -0.2952974              -8.0355
       200                         -0.2904051              -7.9023
       201                         -0.2898786              -7.8880
       202                         -0.2898767              -7.8879
       203                         -0.2857192              -7.7748
       204                         -0.2636298              -7.1737
       205                         -0.2543679              -6.9217
       ...                                ...                  ...
       379                          1.6400750              44.6287
      -------------------------------------------------------------
                  HL-Gap            0.0087210 Eh            0.2373 eV

     #   Z          covCN         q      C6AA      α(0)
     1  26 Fe       3.083     0.561     5.147     7.318
     2   6 C        3.027    -0.054    29.319     8.882
     3   6 C        3.013    -0.054    29.328     8.883
     4   6 C        3.184     0.070    26.000     8.321
     5   6 C        2.955     0.010    27.784     8.646
     6   6 C        3.184     0.070    25.998     8.321
     7   6 C        3.013    -0.054    29.327     8.883
     8   6 C        3.027    -0.054    29.319     8.882
     9   6 C        3.160     0.064    26.255     8.377
    10   7 N        2.636    -0.214    25.678     7.526
    11   6 C        2.903    -0.060    29.500     8.906
    12   6 C        3.155     0.065    26.248     8.378
    13   6 C        3.023    -0.053    29.301     8.879
    14   6 C        3.013    -0.055    29.350     8.887
    15   6 C        3.166     0.070    26.094     8.348
    16   7 N        2.638    -0.213    25.641     7.521
    17   6 C        2.903    -0.059    29.469     8.901
    18   6 C        3.166     0.070    26.094     8.348
    19   6 C        3.013    -0.055    29.350     8.887
    20   6 C        3.023    -0.053    29.301     8.879
    21   6 C        3.155     0.065    26.249     8.378
    22   7 N        2.638    -0.213    25.640     7.520
    23   6 C        2.903    -0.060    29.500     8.906
    24   6 C        3.160     0.064    26.256     8.377
    25   7 N        2.636    -0.214    25.677     7.526
    26   1 H        0.926     0.030     2.583     2.513
    27   1 H        0.926     0.033     2.548     2.496
    28   1 H        0.926     0.033     2.547     2.496
    29   1 H        0.926     0.030     2.583     2.513
    30   1 H        0.926     0.049     2.329     2.387
    31   1 H        0.926     0.031     2.578     2.511
    32   1 H        0.926     0.031     2.573     2.508
    33   1 H        0.926     0.047     2.354     2.399
    34   1 H        0.926     0.031     2.573     2.508
    35   1 H        0.926     0.031     2.577     2.511
    36   1 H        0.926     0.049     2.329     2.387
    37  26 Fe       3.083     0.561     5.147     7.318
    38   6 C        3.027    -0.054    29.319     8.882
    39   6 C        3.013    -0.054    29.328     8.884
    40   6 C        3.184     0.070    26.000     8.321
    41   6 C        2.955     0.010    27.784     8.646
    42   6 C        3.184     0.070    25.999     8.321
    43   6 C        3.013    -0.054    29.327     8.883
    44   6 C        3.027    -0.054    29.319     8.882
    45   6 C        3.160     0.064    26.255     8.377
    46   7 N        2.636    -0.214    25.678     7.526
    47   6 C        2.903    -0.060    29.501     8.906
    48   6 C        3.155     0.065    26.248     8.378
    49   6 C        3.023    -0.053    29.301     8.879
    50   6 C        3.013    -0.055    29.350     8.887
    51   6 C        3.166     0.070    26.094     8.348
    52   7 N        2.638    -0.213    25.641     7.520
    53   6 C        2.903    -0.059    29.469     8.901
    54   6 C        3.166     0.070    26.094     8.348
    55   6 C        3.013    -0.055    29.350     8.887
    56   6 C        3.023    -0.053    29.301     8.879
    57   6 C        3.155     0.065    26.248     8.378
    58   7 N        2.638    -0.213    25.640     7.520
    59   6 C        2.903    -0.060    29.501     8.906
    60   6 C        3.160     0.064    26.256     8.377
    61   7 N        2.636    -0.214    25.677     7.526
    62   1 H        0.926     0.030     2.583     2.513
    63   1 H        0.926     0.033     2.547     2.496
    64   1 H        0.926     0.033     2.547     2.496
    65   1 H        0.926     0.030     2.583     2.513
    66   1 H        0.926     0.049     2.329     2.387
    67   1 H        0.926     0.031     2.577     2.511
    68   1 H        0.926     0.031     2.573     2.508
    69   1 H        0.926     0.047     2.354     2.399
    70   1 H        0.926     0.031     2.573     2.508
    71   1 H        0.926     0.031     2.577     2.511
    72   1 H        0.926     0.049     2.329     2.387
    73   6 C        1.990    -0.023    31.649     9.085
    74   6 C        1.963    -0.011    31.369     9.045
    75   6 C        1.963    -0.011    31.365     9.044
    76   6 C        1.990    -0.023    31.653     9.086
    77   6 C        1.990    -0.023    31.652     9.086
    78   6 C        1.963    -0.011    31.364     9.044
    79   6 C        1.963    -0.011    31.368     9.045
    80   6 C        1.990    -0.023    31.647     9.085
    81  26 Fe       3.077     0.564     5.145     7.317
    82   6 C        3.027    -0.054    29.318     8.881
    83   6 C        3.014    -0.054    29.330     8.884
    84   6 C        3.185     0.071    25.988     8.319
    85   6 C        2.955     0.010    27.786     8.646
    86   6 C        3.185     0.071    25.988     8.319
    87   6 C        3.014    -0.054    29.329     8.884
    88   6 C        3.027    -0.054    29.318     8.882
    89   6 C        3.160     0.064    26.257     8.377
    90   7 N        2.636    -0.215    25.705     7.530
    91   6 C        2.903    -0.059    29.459     8.900
    92   6 C        3.160     0.064    26.257     8.377
    93   6 C        3.027    -0.054    29.317     8.881
    94   6 C        3.014    -0.054    29.329     8.884
    95   6 C        3.185     0.071    25.988     8.319
    96   7 N        2.636    -0.215    25.705     7.530
    97   6 C        2.955     0.010    27.786     8.646
    98   6 C        3.185     0.071    25.989     8.319
    99   6 C        3.014    -0.054    29.329     8.884
   100   6 C        3.027    -0.054    29.318     8.882
   101   6 C        3.160     0.064    26.257     8.377
   102   7 N        2.636    -0.215    25.705     7.530
   103   6 C        2.903    -0.059    29.459     8.900
   104   6 C        3.160     0.064    26.257     8.377
   105   7 N        2.636    -0.215    25.704     7.530
   106   1 H        0.926     0.030     2.584     2.514
   107   1 H        0.926     0.033     2.550     2.497
   108   1 H        0.926     0.033     2.550     2.497
   109   1 H        0.926     0.030     2.584     2.514
   110   1 H        0.926     0.050     2.323     2.384
   111   1 H        0.926     0.030     2.584     2.514
   112   1 H        0.926     0.033     2.550     2.497
   113   1 H        0.926     0.033     2.550     2.497
   114   1 H        0.926     0.030     2.584     2.514
   115   1 H        0.926     0.050     2.323     2.383

Wiberg/Mayer (AO) data.
largest (>0.10) Wiberg bond orders for each atom

     #   Z sym  total        # sym  WBO       # sym  WBO       # sym  WBO
 ---------------------------------------------------------------------------
     1  26 Fe   3.278 --    22 N    0.660    16 N    0.659    25 N    0.656
                            10 N    0.656
     2   6 C    3.957 --     3 C    1.644    24 C    1.171    26 H    0.972
     3   6 C    3.962 --     2 C    1.644     4 C    1.182    27 H    0.971
     4   6 C    3.923 --    25 N    1.257     5 C    1.256     3 C    1.182
     5   6 C    3.951 --     6 C    1.257     4 C    1.256    73 C    1.182
     6   6 C    3.923 --    10 N    1.257     5 C    1.257     7 C    1.182
     7   6 C    3.962 --     8 C    1.644     6 C    1.182    28 H    0.971
     8   6 C    3.957 --     7 C    1.644     9 C    1.171    29 H    0.972
     9   6 C    3.937 --    11 C    1.361    10 N    1.217     8 C    1.171
    10   7 N    3.416 --     6 C    1.257     9 C    1.217     1 Fe   0.656
    11   6 C    3.943 --     9 C    1.361    12 C    1.361    30 H    0.963
    12   6 C    3.942 --    11 C    1.361    16 N    1.227    13 C    1.163
    13   6 C    3.962 --    14 C    1.660    12 C    1.163    31 H    0.972
    14   6 C    3.960 --    13 C    1.660    15 C    1.164    32 H    0.972
    15   6 C    3.944 --    17 C    1.358    16 N    1.239    14 C    1.164
    16   7 N    3.412 --    15 C    1.239    12 C    1.227     1 Fe   0.659
    17   6 C    3.939 --    18 C    1.358    15 C    1.358    33 H    0.965
    18   6 C    3.944 --    17 C    1.358    22 N    1.239    19 C    1.164
    19   6 C    3.960 --    20 C    1.660    18 C    1.164    34 H    0.972
    20   6 C    3.962 --    19 C    1.660    21 C    1.163    35 H    0.972
    21   6 C    3.942 --    23 C    1.361    22 N    1.227    20 C    1.163
    22   7 N    3.412 --    18 C    1.239    21 C    1.227     1 Fe   0.660
    23   6 C    3.943 --    24 C    1.361    21 C    1.361    36 H    0.963
    24   6 C    3.937 --    23 C    1.361    25 N    1.217     2 C    1.171
    25   7 N    3.416 --     4 C    1.257    24 C    1.217     1 Fe   0.656
    26   1 H    0.998 --     2 C    0.972
    27   1 H    0.998 --     3 C    0.971
    28   1 H    0.998 --     7 C    0.971
    29   1 H    0.998 --     8 C    0.972
    30   1 H    0.996 --    11 C    0.963
    31   1 H    0.998 --    13 C    0.972
    32   1 H    0.998 --    14 C    0.972
    33   1 H    0.997 --    17 C    0.965
    34   1 H    0.998 --    19 C    0.972
    35   1 H    0.998 --    20 C    0.972
    36   1 H    0.996 --    23 C    0.963
    37  26 Fe   3.278 --    58 N    0.660    52 N    0.660    46 N    0.657
                            61 N    0.656
    38   6 C    3.957 --    39 C    1.644    60 C    1.171    62 H    0.972
    39   6 C    3.962 --    38 C    1.644    40 C    1.182    63 H    0.971
    40   6 C    3.923 --    61 N    1.257    41 C    1.257    39 C    1.182
    41   6 C    3.951 --    42 C    1.257    40 C    1.257    80 C    1.181
    42   6 C    3.923 --    41 C    1.257    46 N    1.257    43 C    1.182
    43   6 C    3.962 --    44 C    1.644    42 C    1.182    64 H    0.971
    44   6 C    3.957 --    43 C    1.644    45 C    1.171    65 H    0.972
    45   6 C    3.937 --    47 C    1.361    46 N    1.217    44 C    1.171
    46   7 N    3.416 --    42 C    1.257    45 C    1.217    37 Fe   0.657
    47   6 C    3.943 --    45 C    1.361    48 C    1.361    66 H    0.963
    48   6 C    3.942 --    47 C    1.361    52 N    1.227    49 C    1.163
    49   6 C    3.962 --    50 C    1.660    48 C    1.163    67 H    0.972
    50   6 C    3.960 --    49 C    1.660    51 C    1.164    68 H    0.972
    51   6 C    3.944 --    53 C    1.358    52 N    1.239    50 C    1.164
    52   7 N    3.412 --    51 C    1.239    48 C    1.227    37 Fe   0.660
    53   6 C    3.939 --    54 C    1.358    51 C    1.358    69 H    0.965
    54   6 C    3.944 --    53 C    1.358    58 N    1.239    55 C    1.164
    55   6 C    3.960 --    56 C    1.660    54 C    1.164    70 H    0.972
    56   6 C    3.962 --    55 C    1.660    57 C    1.163    71 H    0.972
    57   6 C    3.942 --    59 C    1.361    58 N    1.227    56 C    1.163
    58   7 N    3.412 --    54 C    1.239    57 C    1.227    37 Fe   0.660
    59   6 C    3.943 --    60 C    1.361    57 C    1.361    72 H    0.963
    60   6 C    3.937 --    59 C    1.361    61 N    1.217    38 C    1.171
    61   7 N    3.416 --    40 C    1.257    60 C    1.217    37 Fe   0.656
    62   1 H    0.998 --    38 C    0.972
    63   1 H    0.998 --    39 C    0.971
    64   1 H    0.998 --    43 C    0.971
    65   1 H    0.998 --    44 C    0.972
    66   1 H    0.996 --    47 C    0.963
    67   1 H    0.998 --    49 C    0.972
    68   1 H    0.998 --    50 C    0.972
    69   1 H    0.997 --    53 C    0.965
    70   1 H    0.998 --    55 C    0.972
    71   1 H    0.998 --    56 C    0.972
    72   1 H    0.996 --    59 C    0.963
    73   6 C    3.920 --    74 C    2.476     5 C    1.182    76 C    0.204
    74   6 C    3.931 --    73 C    2.476    75 C    1.301
    75   6 C    3.928 --    76 C    2.475    74 C    1.301
    76   6 C    3.921 --    75 C    2.475    85 C    1.184    73 C    0.204
    77   6 C    3.920 --    78 C    2.475    97 C    1.183    80 C    0.203
    78   6 C    3.928 --    77 C    2.475    79 C    1.300
    79   6 C    3.931 --    80 C    2.477    78 C    1.300
    80   6 C    3.919 --    79 C    2.477    41 C    1.181    77 C    0.203
    81  26 Fe   3.244 --   102 N    0.652    90 N    0.652   105 N    0.652
                            96 N    0.652
    82   6 C    3.958 --    83 C    1.643   104 C    1.172   106 H    0.972
    83   6 C    3.961 --    82 C    1.643    84 C    1.182   107 H    0.971
    84   6 C    3.923 --   105 N    1.260    85 C    1.254    83 C    1.182
    85   6 C    3.942 --    86 C    1.255    84 C    1.254    76 C    1.184
    86   6 C    3.923 --    90 N    1.260    85 C    1.255    87 C    1.183
    87   6 C    3.961 --    88 C    1.643    86 C    1.183   108 H    0.971
    88   6 C    3.958 --    87 C    1.643    89 C    1.172   109 H    0.972
    89   6 C    3.937 --    91 C    1.361    90 N    1.215    88 C    1.172
    90   7 N    3.407 --    86 C    1.260    89 C    1.215    81 Fe   0.652
    91   6 C    3.937 --    92 C    1.361    89 C    1.361   110 H    0.963
    92   6 C    3.937 --    91 C    1.361    96 N    1.215    93 C    1.172
    93   6 C    3.958 --    94 C    1.643    92 C    1.172   111 H    0.972
    94   6 C    3.961 --    93 C    1.643    95 C    1.182   112 H    0.971
    95   6 C    3.923 --    96 N    1.260    97 C    1.255    94 C    1.182
    96   7 N    3.407 --    95 C    1.260    92 C    1.215    81 Fe   0.652
    97   6 C    3.942 --    98 C    1.255    95 C    1.255    77 C    1.183
    98   6 C    3.923 --   102 N    1.260    97 C    1.255    99 C    1.182
    99   6 C    3.961 --   100 C    1.643    98 C    1.182   113 H    0.971
   100   6 C    3.958 --    99 C    1.643   101 C    1.172   114 H    0.972
   101   6 C    3.937 --   103 C    1.361   102 N    1.215   100 C    1.172
   102   7 N    3.407 --    98 C    1.260   101 C    1.215    81 Fe   0.652
   103   6 C    3.937 --   104 C    1.361   101 C    1.361   115 H    0.963
   104   6 C    3.937 --   103 C    1.361   105 N    1.215    82 C    1.172
   105   7 N    3.407 --    84 C    1.260   104 C    1.215    81 Fe   0.652
   106   1 H    0.998 --    82 C    0.972
   107   1 H    0.998 --    83 C    0.971
   108   1 H    0.998 --    87 C    0.971
   109   1 H    0.998 --    88 C    0.972
   110   1 H    0.996 --    91 C    0.963
   111   1 H    0.998 --    93 C    0.972
   112   1 H    0.998 --    94 C    0.971
   113   1 H    0.998 --    99 C    0.971
   114   1 H    0.998 --   100 C    0.972
   115   1 H    0.996 --   103 C    0.963
 ---------------------------------------------------------------------------

molecular dipole:
                 x           y           z       tot (Debye)
 q only:        0.002      -0.001      -0.002
   full:        0.001      -0.002      -0.004       0.012

 projected vibrational frequencies (cm⁻¹)
eigval :       -0.00    -0.00     0.00     0.00     0.00     0.00
eigval :        2.29     3.62     4.16     5.55     8.85     8.86
eigval :       13.13    22.51    27.06    30.26    31.47    31.60
eigval :       34.86    38.27    48.92    51.70    62.15    88.26
eigval :       91.69    93.69    94.40   101.21   109.41   124.27
eigval :      125.20   126.39   126.46   141.78   146.54   148.09
eigval :      157.33   170.22   184.31   184.71   185.00   206.53
eigval :      208.93   209.73   210.05   217.62   219.48   223.93
eigval :      224.03   225.26   226.34   226.41   226.52   233.01
eigval :      246.85   247.89   247.92   250.37   254.42   255.89
eigval :      255.98   265.22   274.48   281.18   281.37   282.41
eigval :      304.68   307.98   315.58   316.77   318.77   321.00
eigval :      323.24   329.94   330.54   352.86   355.79   357.66
eigval :      357.88   358.27   361.39   362.04   365.24   370.19
eigval :      370.27   381.09   381.31   388.06   388.14   393.66
eigval :      394.54   394.56   398.56   405.46   417.14   428.88
eigval :      428.88   432.05   432.10   433.52   442.17   449.57
eigval :      455.57   455.59   460.32   504.30   506.73   508.93
eigval :      510.90   525.41   544.31   617.65   619.70   619.74
eigval :      621.24   623.39   623.40   625.22   625.22   629.49
eigval :      634.59   638.48   638.49   640.15   640.15   645.53
eigval :      652.81   653.53   653.55   662.85   662.88   669.77
eigval :      670.13   670.71   671.06   718.71   718.80   719.84
eigval :      719.97   752.17   752.45   754.00   754.14   755.45
eigval :      761.38   765.07   768.58   776.93   776.99   780.71
eigval :      780.74   795.80   796.53   797.17   797.68   798.02
eigval :      798.03   802.62   804.98   805.22   805.28   809.46
eigval :      809.53   814.32   815.82   816.38   816.44   818.46
eigval :      819.53   826.23   826.24   835.92   835.94   836.47
eigval :      837.42   837.53   837.60   840.59   840.72   841.18
eigval :      842.06   842.57   842.67   843.87   843.95   844.01
eigval :      844.11   844.18   844.26   928.33   928.81   980.09
eigval :      981.19   986.46   987.66   987.79   991.09  1000.48
eigval :     1007.81  1016.81  1016.82  1018.67  1020.40  1023.23
eigval :     1023.24  1029.88  1030.86  1034.92  1037.04  1037.14
eigval :     1038.83  1038.98  1039.28  1066.38  1066.45  1067.60
eigval :     1068.33  1068.88  1069.49  1070.61  1071.03  1071.28
eigval :     1071.67  1072.22  1072.26  1126.56  1136.14  1142.61
eigval :     1142.62  1150.44  1161.13  1169.51  1173.02  1174.26
eigval :     1177.05  1177.08  1208.73  1222.47  1222.50  1231.77
eigval :     1237.10  1253.41  1253.80  1255.49  1268.06  1283.27
eigval :     1283.30  1300.27  1302.49  1302.63  1306.84  1309.36
eigval :     1313.73  1314.02  1314.21  1314.30  1318.20  1319.52
eigval :     1322.39  1322.47  1333.92  1333.98  1336.55  1338.45
eigval :     1343.44  1347.12  1356.71  1357.03  1357.03  1360.12
eigval :     1361.39  1404.21  1405.35  1452.98  1458.56  1458.69
eigval :     1474.04  1476.65  1482.48  1484.27  1484.50  1486.17
eigval :     1487.53  1493.01  1493.16  1501.34  1505.92  1507.51
eigval :     1520.45  1522.95  1522.99  1524.85  1525.00  1531.59
eigval :     1531.80  1539.50  1539.55  1546.57  1548.66  1554.57
eigval :     1554.71  1569.53  1569.57  1583.20  1583.69  1585.00
eigval :     1599.69  1605.11  1605.13  2233.88  2237.66  2238.91
eigval :     2239.09  3077.62  3077.94  3078.43  3078.45  3078.46
eigval :     3078.48  3096.87  3097.01  3146.13  3146.39  3146.41
eigval :     3146.70  3149.14  3149.67  3149.96  3150.08  3150.28
eigval :     3150.91  3151.40  3151.66  3160.02  3160.49  3160.59
eigval :     3161.05  3164.41  3164.99  3165.12  3165.57  3165.97
eigval :     3166.21  3166.60  3166.88

   temp. (K)  partition function   enthalpy   heat capacity  entropy
                                   cal/mol     cal/K/mol   cal/K/mol   J/K/mol
 298.15  VIB  0.353E+34            39869.627    259.508    250.672
         ROT  0.827E+09              888.752      2.981     43.786
         INT  0.292E+43            40758.379    262.488    294.458
         TR   0.394E+29             1481.254      4.968     47.065
         TOT                       42239.6332   267.4566   341.5233  1428.9336

       T/K    H(0)-H(T)+PV         H(T)/Eh          T*S/Eh         G(T)/Eh
   ------------------------------------------------------------------------
    298.15    0.673131E-01    0.860094E+00    0.162269E+00    0.697826E+00
   ------------------------------------------------------------------------

         :::::::::::::::::::::::::::::::::::::::::::::::::::::
         ::                  THERMODYNAMIC                  ::
         :::::::::::::::::::::::::::::::::::::::::::::::::::::
         :: total free energy        -205.751807445313 Eh   ::
         ::.................................................::
         :: total energy             -206.449633159797 Eh   ::
         :: zero point energy           0.792781327620 Eh   ::
         :: G(RRHO) w/o ZPVE           -0.094955613136 Eh   ::
         :: G(RRHO) contrib.            0.697825714484 Eh   ::
         :::::::::::::::::::::::::::::::::::::::::::::::::::::

           -------------------------------------------------
          | TOTAL ENERGY             -206.449633159797 Eh   |
          | TOTAL ENTHALPY           -205.589538692003 Eh   |
          | TOTAL FREE ENERGY        -205.751807445313 Eh   |
          | GRADIENT NORM               0.000733216978 Eh/α |
          | HOMO-LUMO GAP               0.237310729536 eV   |
           -------------------------------------------------

 * finished run on 2021/11/19 at 11:22:46.572
