   * xtb version 6.4.1 (bd6e46d) compiled by 'conda@4901f00b25ba' on 2021-06-10
          program call               : /home/jeff/miniconda3/bin/xtb input_structure_1.xyz --gfn 2 --ohess normal --parallel 1 --etemp 300 --chrg 0 --uhf 0 -I det_control.in
          number of atoms            :                   114
          number of electrons        :                   354
          charge                     :                     0
          spin                       :                   0.0

   ID    Z sym.   atoms
    1    6 C      1-8, 10-14, 16-20, 22, 23, 38-45, 47-51, 53-57, 59, 60,
                  75-86, 88-92, 94-98, 100, 101
    2    7 N      9, 15, 21, 24, 46, 52, 58, 61, 87, 93, 99, 102
    3    1 H      25-37, 62-74, 103-114

          :  Hamiltonian                  GFN2-xTB          :
 * total energy  :  -190.4779144 Eh     change       -0.1244268E-07 Eh
 * total energy  :  -190.8248457 Eh     change       -0.3469314E+00 Eh
 * total energy  :  -190.9914753 Eh     change       -0.1666296E+00 Eh
 * total energy  :  -191.1218144 Eh     change       -0.1303391E+00 Eh
 * total energy  :  -191.1729778 Eh     change       -0.5116338E-01 Eh
 * total energy  :  -191.2059345 Eh     change       -0.3295668E-01 Eh
 * total energy  :  -191.2355831 Eh     change       -0.2964858E-01 Eh
 * total energy  :  -191.2596658 Eh     change       -0.2408277E-01 Eh
 * total energy  :  -191.2799046 Eh     change       -0.2023880E-01 Eh
 * total energy  :  -191.2966660 Eh     change       -0.1676140E-01 Eh
 * total energy  :  -191.3759226 Eh     change        0.1699084E-05 Eh
 * total energy  :  -191.3759296 Eh     change       -0.7022850E-05 Eh
 * total energy  :  -191.3759289 Eh     change        0.6797488E-06 Eh
 * total energy  :  -191.3759352 Eh     change       -0.6289546E-05 Eh
 * total energy  :  -191.3759423 Eh     change       -0.7110156E-05 Eh
 * total energy  :  -191.3759518 Eh     change       -0.9443361E-05 Eh
 * total energy  :  -191.3759613 Eh     change       -0.9570181E-05 Eh
 * total energy  :  -191.3759673 Eh     change       -0.6002856E-05 Eh
 * total energy  :  -191.3759717 Eh     change       -0.4325781E-05 Eh
   *** GEOMETRY OPTIMIZATION CONVERGED AFTER 79 ITERATIONS ***

 final structure:
================
114
 xtb: 6.4.1 (bd6e46d)
C        20.82792767802033    3.37803859515995    0.72077186072759
C        21.79773388038335    2.45673580650983    0.56023783474866
C        21.11861092786269    1.21018524937914    0.25508980237859
C        21.79827863597269   -0.00246035797598    0.03040938118036
C        21.16484155814597   -1.22715670368413   -0.23248591380710
C        21.78349325342484   -2.48187541405424   -0.48024874168867
C        20.79137738798508   -3.39280517280635   -0.70167331272179
C        19.54480155080153   -2.71324336389210   -0.59964792583970
N        19.82301962757371   -1.41141440481735   -0.31311631584529
C        18.28554913675810   -3.26873332832577   -0.77216641639979
C        17.06020132413995   -2.62126265976203   -0.69669529595787
C        15.79399908033473   -3.30870886039842   -0.90633360061497
C        14.83237931019478   -2.37884809779560   -0.75840447053865
C        15.51849503564316   -1.13129360647468   -0.45978025069502
N        16.85548034894003   -1.31442659927962   -0.43178440721173
C        14.85606572897796    0.06900939288615   -0.23539607367947
C        15.46493714321924    1.28132270152368    0.05016149791896
C        14.84365137814139    2.53895527830746    0.29713073875723
C        15.83175781657594    3.44833394711889    0.53309883898855
C        17.08212792984216    2.77076904385816    0.43538681194226
N        16.80802596333512    1.47189113323511    0.14435512242871
C        18.34174217058756    3.32582640229089    0.60421253008716
C        19.56817909162613    2.68414439665924    0.51328119060432
N        19.78524449958402    1.37643011234414    0.23592134552206
H        20.91939331323321    4.42086587699417    0.95688721962944
H        22.86102781965483    2.56819760563157    0.64720258653668
H        22.84270630635270   -2.64895374425549   -0.49523503537119
H        20.90180973848923   -4.43720895075184   -0.91979341234762
H        19.14244622013746   -0.67160185415122   -0.18436530601649
H        18.25892430717990   -4.32623057029537   -0.99626551287196
H        15.69705715123026   -4.35332092808064   -1.13292388700671
H        13.76738769464397   -2.48661577840417   -0.83582293267220
H        13.77690965357362    0.05695673601131   -0.28605995992355
H        13.78459369025563    2.70946357978841    0.29267479822157
H        15.71976484001570    4.49198938574049    0.75494862614881
H        17.48701973658646    0.73212045473927    0.01119301388600
H        18.37003567240835    4.38196236203186    0.83487213728862
C        37.81020262410743   -3.45149481805936   -0.06906740406884
C        36.84811054350241   -2.50874552134904   -0.04451825126487
C        37.53850092652480   -1.23280187308168    0.00485627945229
C        36.86895347635727    0.00591359831517    0.05202023998549
C        37.51826382131431    1.25105350926027    0.06893212859258
C        36.91820145655937    2.53636739967838    0.14167279971620
C        37.92194212530326    3.46110779392086    0.12267453116403
C        39.15833152542501    2.76040334824721    0.04508259170719
N        38.86207213341372    1.43149308832206    0.01771669675843
C        40.42425769768672    3.32636492233954    0.00824448298602
C        41.64427101237693    2.66661059270238   -0.03982026879195
C        42.91787037205015    3.37154361475953   -0.06936117523327
C        43.87208403852860    2.42295266164359   -0.09919296309919
C        43.17409462446525    1.14672493260150   -0.08707197849801
N        41.83746655892859    1.33162160622066   -0.05420478070293
C        43.82537368512958   -0.08027167194725   -0.10167705375645
C        43.20228221332274   -1.31863420832124   -0.08764270571967
C        43.80820908415414   -2.60747698770675   -0.10232530097001
C        42.80792360261579   -3.53391041086590   -0.08766564621195
C        41.56527123781693   -2.83571230381329   -0.06361533406612
N        41.85598354820936   -1.50821076903469   -0.06174164083524
C        40.29811835506960   -3.39927607977063   -0.05745982845518
C        39.07730362840142   -2.74096102039028   -0.04133782816382
N        38.87152124925815   -1.40277059162351   -0.00159743165908
H        37.70895455121229   -4.51915644422933   -0.10743013103510
H        35.78261622085166   -2.62616280185767   -0.07330050499642
H        35.86367690707333    2.71599709008819    0.21334436044907
H        37.82582650518770    4.52868950864959    0.16234313787830
H        39.53109172165598    0.67153707385347   -0.02876659186293
H        40.46159809212875    4.40693875287715    0.02510869358716
H        43.02426307119132    4.43952473722981   -0.06594244100239
H        44.93910077437547    2.53517666956502   -0.12555689941168
H        44.90542451613054   -0.06901253603246   -0.12542419563304
H        44.86573584316382   -2.78617715758802   -0.12240671154005
H        42.90683279267081   -4.60218152242184   -0.09323431418348
H        41.18725193328404   -0.74746128064783   -0.04525297097113
H        40.25811223987057   -4.47988219852444   -0.07303684578609
C        23.19888441300603    0.00916146010986    0.06521639332300
C        24.41190455481607    0.03199109688415    0.08638064407400
C        34.25504963372682   -0.00829053778235    0.10381613665800
C        35.46876920284044    0.00238650522421    0.08111059594680
C        26.79510707266950   -3.18451254360286    1.30199495278167
C        25.81936797689184   -2.31627253379776    0.97103072606760
C        26.49240713886807   -1.11219760806678    0.52058461194200
C        25.81173905611211    0.04792225828678    0.10369329586996
C        26.46043880544041    1.22527984667858   -0.30198066564360
C        25.86919165501584    2.43390213166992   -0.75444599411934
C        26.88362331270455    3.29462348253898   -1.06250018494501
C        28.11514135741974    2.62766862341521   -0.80984832517676
N        27.80702597697298    1.38482439254187   -0.34819633598504
C        29.38445771357387    3.14718224396308   -1.02338729896712
C        30.61156489793335    2.53488453913993   -0.82418883045611
C        31.86729707079017    3.19530495248373   -1.13801429010906
C        32.84287382231840    2.31838443684987   -0.83064444388729
C        32.17270151475110    1.13537002461217   -0.32454703370239
N        30.83784500005975    1.29022682335983   -0.33974712070686
C        32.85562708564569   -0.01372613949625    0.12098639941557
C        32.20541791164847   -1.17027172776228    0.58243296214051
C        32.79466568350328   -2.36028886093267    1.08340429942087
C        31.77993955768065   -3.21541757096019    1.40557011923062
C        30.54946188674717   -2.56349450202424    1.11270275751707
N        30.85883682531789   -1.33189669803903    0.62218381793012
C        29.28035099683684   -3.09478029346508    1.29675013459267
C        28.05270730394827   -2.50077893516153    1.05083651192475
N        27.82785904927367   -1.25162781798124    0.57823227816799
H        26.70887851347950   -4.18503291284005    1.68031880663354
H        24.75501561298349   -2.43662126644298    1.02819542439461
H        24.81406362589475    2.60524918906389   -0.84033082600567
H        26.79717939912388    4.29676226660484   -1.43512781284460
H        28.45706253043486    0.65421868252825   -0.07877538242319
H        29.41683843682532    4.15799546393092   -1.40732446477016
H        31.95243326937496    4.18615759141204   -1.54116678021802
H        33.90490267902784    2.42001124114264   -0.93835513368168
H        33.84869816067567   -2.52346687557966    1.19237678264810
H        31.86564696364178   -4.20462016075653    1.81147015000963
H        30.20933145839762   -0.61166246771744    0.32501487274821
H        29.24844856234023   -4.10272916746398    1.68817294010092

          :  Hamiltonian                  GFN2-xTB          :
         :: gradient norm              0.000281632248 Eh/a0 ::
         :: HOMO-LUMO gap              0.934988574869 eV    ::
         :: SCC energy              -194.857710455285 Eh    ::
         :: -> dispersion             -0.163378798177 Eh    ::
         :: repulsion energy           3.484107862202 Eh    ::

    * Orbital Energies and Occupations

         #    Occupation            Energy/Eh            Energy/eV
      -------------------------------------------------------------
         1        2.0000           -0.6836782             -18.6038
       ...           ...                  ...                  ...
       165        2.0000           -0.3875664             -10.5462
       166        2.0000           -0.3726666             -10.1408
       167        2.0000           -0.3720953             -10.1252
       168        2.0000           -0.3714647             -10.1081
       169        2.0000           -0.3714341             -10.1072
       170        2.0000           -0.3704834             -10.0814
       171        2.0000           -0.3704520             -10.0805
       172        2.0000           -0.3688991             -10.0383
       173        2.0000           -0.3682060             -10.0194
       174        2.0000           -0.3680098             -10.0141
       175        2.0000           -0.3655915              -9.9482
       176        2.0000           -0.3567150              -9.7067
       177        2.0000           -0.3461536              -9.4193 (HOMO)
       178                         -0.3117934              -8.4843 (LUMO)
       179                         -0.3002742              -8.1709
       180                         -0.2975404              -8.0965
       181                         -0.2970243              -8.0824
       182                         -0.2965995              -8.0709
       183                         -0.2889603              -7.8630
       184                         -0.2645367              -7.1984
       185                         -0.2562040              -6.9717
       186                         -0.2513903              -6.8407
       187                         -0.1912420              -5.2040
       188                         -0.1900536              -5.1716
       ...                                ...                  ...
       342                          1.4107087              38.3873
      -------------------------------------------------------------
                  HL-Gap            0.0343602 Eh            0.9350 eV

     #   Z          covCN         q      C6AA      α(0)
     1   6 C        3.016    -0.055    29.343     8.886
     2   6 C        3.010    -0.053    29.309     8.881
     3   6 C        3.194     0.086    25.600     8.250
     4   6 C        2.952     0.013    27.725     8.636
     5   6 C        3.095     0.064    26.461     8.431
     6   6 C        3.027    -0.049    29.199     8.863
     7   6 C        3.034    -0.052    29.254     8.872
     8   6 C        3.072     0.064    26.484     8.438
     9   7 N        2.786    -0.081    22.815     7.094
    10   6 C        2.899    -0.055    29.373     8.886
    11   6 C        3.170     0.087    25.719     8.285
    12   6 C        3.012    -0.054    29.317     8.882
    13   6 C        3.009    -0.054    29.319     8.882
    14   6 C        3.174     0.086    25.708     8.281
    15   7 N        1.870    -0.321    29.178     8.007
    16   6 C        2.899    -0.057    29.416     8.893
    17   6 C        3.074     0.065    26.471     8.436
    18   6 C        3.025    -0.051    29.242     8.870
    19   6 C        3.031    -0.051    29.233     8.869
    20   6 C        3.068     0.066    26.465     8.435
    21   7 N        2.787    -0.081    22.817     7.095
    22   6 C        2.899    -0.055    29.371     8.886
    23   6 C        3.174     0.085    25.732     8.285
    24   7 N        1.870    -0.324    29.261     8.018
    25   1 H        0.926     0.018     2.757     2.596
    26   1 H        0.926     0.019     2.742     2.590
    27   1 H        0.926     0.043     2.408     2.427
    28   1 H        0.926     0.041     2.429     2.437
    29   1 H        0.860     0.214     1.037     1.595
    30   1 H        0.925     0.047     2.360     2.402
    31   1 H        0.926     0.019     2.744     2.590
    32   1 H        0.926     0.019     2.744     2.590
    33   1 H        0.926     0.046     2.372     2.408
    34   1 H        0.926     0.042     2.426     2.436
    35   1 H        0.926     0.042     2.427     2.436
    36   1 H        0.860     0.214     1.035     1.594
    37   1 H        0.925     0.047     2.360     2.402
    38   6 C        3.016    -0.055    29.345     8.886
    39   6 C        3.010    -0.053    29.308     8.880
    40   6 C        3.193     0.086    25.607     8.252
    41   6 C        2.952     0.013    27.724     8.636
    42   6 C        3.095     0.064    26.462     8.431
    43   6 C        3.027    -0.049    29.199     8.864
    44   6 C        3.034    -0.052    29.256     8.872
    45   6 C        3.072     0.064    26.485     8.438
    46   7 N        2.786    -0.081    22.815     7.094
    47   6 C        2.899    -0.055    29.369     8.886
    48   6 C        3.170     0.087    25.719     8.285
    49   6 C        3.012    -0.054    29.317     8.882
    50   6 C        3.009    -0.054    29.319     8.882
    51   6 C        3.175     0.086    25.707     8.281
    52   7 N        1.870    -0.321    29.174     8.006
    53   6 C        2.899    -0.057    29.415     8.893
    54   6 C        3.074     0.065    26.471     8.436
    55   6 C        3.025    -0.051    29.243     8.870
    56   6 C        3.031    -0.051    29.233     8.869
    57   6 C        3.068     0.066    26.465     8.435
    58   7 N        2.787    -0.081    22.819     7.095
    59   6 C        2.899    -0.055    29.370     8.886
    60   6 C        3.174     0.085    25.734     8.285
    61   7 N        1.870    -0.324    29.259     8.018
    62   1 H        0.926     0.018     2.758     2.597
    63   1 H        0.926     0.019     2.747     2.592
    64   1 H        0.926     0.043     2.409     2.427
    65   1 H        0.926     0.041     2.430     2.438
    66   1 H        0.860     0.214     1.037     1.595
    67   1 H        0.925     0.047     2.359     2.402
    68   1 H        0.926     0.019     2.744     2.590
    69   1 H        0.926     0.019     2.743     2.590
    70   1 H        0.926     0.046     2.372     2.408
    71   1 H        0.926     0.042     2.426     2.436
    72   1 H        0.926     0.042     2.427     2.436
    73   1 H        0.860     0.214     1.035     1.594
    74   1 H        0.925     0.047     2.360     2.402
    75   6 C        1.993    -0.030    31.840     9.113
    76   6 C        1.991    -0.031    31.863     9.116
    77   6 C        1.991    -0.031    31.865     9.116
    78   6 C        1.992    -0.030    31.844     9.113
    79   6 C        3.017    -0.055    29.338     8.885
    80   6 C        3.009    -0.053    29.305     8.880
    81   6 C        3.194     0.086    25.603     8.250
    82   6 C        2.952     0.013    27.722     8.636
    83   6 C        3.098     0.063    26.467     8.431
    84   6 C        3.025    -0.050    29.208     8.865
    85   6 C        3.036    -0.052    29.253     8.871
    86   6 C        3.072     0.064    26.491     8.439
    87   7 N        2.786    -0.082    22.826     7.096
    88   6 C        2.899    -0.053    29.324     8.879
    89   6 C        3.172     0.085    25.746     8.288
    90   6 C        3.017    -0.055    29.340     8.885
    91   6 C        3.010    -0.053    29.307     8.880
    92   6 C        3.193     0.086    25.609     8.252
    93   7 N        1.871    -0.323    29.240     8.015
    94   6 C        2.952     0.013    27.722     8.636
    95   6 C        3.097     0.063    26.468     8.431
    96   6 C        3.026    -0.050    29.206     8.865
    97   6 C        3.036    -0.052    29.254     8.872
    98   6 C        3.072     0.064    26.492     8.439
    99   7 N        2.786    -0.082    22.825     7.096
   100   6 C        2.899    -0.053    29.323     8.879
   101   6 C        3.172     0.085    25.744     8.288
   102   7 N        1.871    -0.323    29.239     8.015
   103   1 H        0.926     0.019     2.755     2.596
   104   1 H        0.926     0.019     2.745     2.591
   105   1 H        0.926     0.043     2.410     2.428
   106   1 H        0.926     0.041     2.433     2.439
   107   1 H        0.860     0.215     1.034     1.593
   108   1 H        0.925     0.048     2.351     2.398
   109   1 H        0.926     0.019     2.756     2.596
   110   1 H        0.926     0.019     2.748     2.592
   111   1 H        0.926     0.043     2.414     2.430
   112   1 H        0.926     0.041     2.433     2.439
   113   1 H        0.860     0.215     1.035     1.593
   114   1 H        0.925     0.048     2.351     2.398

Wiberg/Mayer (AO) data.
largest (>0.10) Wiberg bond orders for each atom

     #   Z sym  total        # sym  WBO       # sym  WBO       # sym  WBO
 ---------------------------------------------------------------------------
     1   6 C    3.960 --     2 C    1.716    23 C    1.115    25 H    0.973
     2   6 C    3.961 --     1 C    1.716     3 C    1.121    26 H    0.970
     3   6 C    3.922 --    24 N    1.359     4 C    1.250     2 C    1.121
     4   6 C    3.940 --     5 C    1.254     3 C    1.250    75 C    1.175
     5   6 C    3.908 --     4 C    1.254     6 C    1.236     9 N    1.224
     6   6 C    3.956 --     7 C    1.594     5 C    1.236    27 H    0.970
     7   6 C    3.949 --     6 C    1.594     8 C    1.223    28 H    0.973
     8   6 C    3.918 --    10 C    1.344     7 C    1.223     9 N    1.203
     9   7 N    3.590 --     5 C    1.224     8 C    1.203    29 H    0.900
    10   6 C    3.922 --    11 C    1.357     8 C    1.344    30 H    0.964
    11   6 C    3.939 --    10 C    1.357    15 N    1.324    12 C    1.107
    12   6 C    3.963 --    13 C    1.731    11 C    1.107    31 H    0.973
    13   6 C    3.962 --    12 C    1.731    14 C    1.109    32 H    0.973
    14   6 C    3.938 --    16 C    1.354    15 N    1.325    13 C    1.109
    15   7 N    3.002 --    14 C    1.325    11 C    1.324
    16   6 C    3.924 --    14 C    1.354    17 C    1.347    33 H    0.965
    17   6 C    3.921 --    16 C    1.347    18 C    1.216    21 N    1.210
    18   6 C    3.949 --    19 C    1.608    17 C    1.216    34 H    0.973
    19   6 C    3.953 --    18 C    1.608    20 C    1.215    35 H    0.973
    20   6 C    3.916 --    22 C    1.343    19 C    1.215    21 N    1.211
    21   7 N    3.586 --    20 C    1.211    17 C    1.210    36 H    0.900
    22   6 C    3.937 --    23 C    1.365    20 C    1.343    37 H    0.964
    23   6 C    3.925 --    22 C    1.365    24 N    1.301     1 C    1.115
    24   7 N    3.010 --     3 C    1.359    23 C    1.301
    25   1 H    0.999 --     1 C    0.973
    26   1 H    0.999 --     2 C    0.970
    27   1 H    0.998 --     6 C    0.970
    28   1 H    0.998 --     7 C    0.973
    29   1 H    0.954 --     9 N    0.900
    30   1 H    0.997 --    10 C    0.964
    31   1 H    0.999 --    12 C    0.973
    32   1 H    0.999 --    13 C    0.973
    33   1 H    0.997 --    16 C    0.965
    34   1 H    0.998 --    18 C    0.973
    35   1 H    0.998 --    19 C    0.973
    36   1 H    0.954 --    21 N    0.900
    37   1 H    0.997 --    22 C    0.964
    38   6 C    3.960 --    39 C    1.716    60 C    1.115    62 H    0.973
    39   6 C    3.961 --    38 C    1.716    40 C    1.122    63 H    0.969
    40   6 C    3.921 --    61 N    1.360    41 C    1.248    39 C    1.122
    41   6 C    3.940 --    42 C    1.252    40 C    1.248    78 C    1.180
    42   6 C    3.907 --    41 C    1.252    43 C    1.237    46 N    1.225
    43   6 C    3.956 --    44 C    1.593    42 C    1.237    64 H    0.969
    44   6 C    3.948 --    43 C    1.593    45 C    1.224    65 H    0.973
    45   6 C    3.918 --    47 C    1.344    44 C    1.224    46 N    1.203
    46   7 N    3.590 --    42 C    1.225    45 C    1.203    66 H    0.900
    47   6 C    3.921 --    48 C    1.358    45 C    1.344    67 H    0.964
    48   6 C    3.939 --    47 C    1.358    52 N    1.324    49 C    1.107
    49   6 C    3.963 --    50 C    1.731    48 C    1.107    68 H    0.973
    50   6 C    3.962 --    49 C    1.731    51 C    1.109    69 H    0.973
    51   6 C    3.938 --    53 C    1.354    52 N    1.325    50 C    1.109
    52   7 N    3.001 --    51 C    1.325    48 C    1.324
    53   6 C    3.923 --    51 C    1.354    54 C    1.347    70 H    0.965
    54   6 C    3.921 --    53 C    1.347    55 C    1.216    58 N    1.210
    55   6 C    3.949 --    56 C    1.608    54 C    1.216    71 H    0.973
    56   6 C    3.953 --    55 C    1.608    57 C    1.215    72 H    0.973
    57   6 C    3.916 --    59 C    1.343    56 C    1.215    58 N    1.211
    58   7 N    3.586 --    57 C    1.211    54 C    1.210    73 H    0.900
    59   6 C    3.937 --    60 C    1.365    57 C    1.343    74 H    0.964
    60   6 C    3.925 --    59 C    1.365    61 N    1.300    38 C    1.115
    61   7 N    3.010 --    40 C    1.360    60 C    1.300
    62   1 H    0.999 --    38 C    0.973
    63   1 H    0.999 --    39 C    0.969
    64   1 H    0.998 --    43 C    0.969
    65   1 H    0.998 --    44 C    0.973
    66   1 H    0.954 --    46 N    0.900
    67   1 H    0.997 --    47 C    0.964
    68   1 H    0.999 --    49 C    0.973
    69   1 H    0.999 --    50 C    0.973
    70   1 H    0.997 --    53 C    0.965
    71   1 H    0.998 --    55 C    0.973
    72   1 H    0.998 --    56 C    0.973
    73   1 H    0.954 --    58 N    0.900
    74   1 H    0.997 --    59 C    0.964
    75   6 C    3.920 --    76 C    2.567     4 C    1.175
    76   6 C    3.924 --    75 C    2.567    82 C    1.178
    77   6 C    3.924 --    78 C    2.564    94 C    1.183
    78   6 C    3.921 --    77 C    2.564    41 C    1.180
    79   6 C    3.961 --    80 C    1.716   101 C    1.115   103 H    0.973
    80   6 C    3.961 --    79 C    1.716    81 C    1.123   104 H    0.970
    81   6 C    3.923 --   102 N    1.359    82 C    1.249    80 C    1.123
    82   6 C    3.927 --    83 C    1.251    81 C    1.249    76 C    1.178
    83   6 C    3.909 --    82 C    1.251    84 C    1.239    87 N    1.225
    84   6 C    3.953 --    85 C    1.589    83 C    1.239   105 H    0.970
    85   6 C    3.950 --    84 C    1.589    86 C    1.226   106 H    0.973
    86   6 C    3.915 --    88 C    1.337    85 C    1.226    87 N    1.204
    87   7 N    3.586 --    83 C    1.225    86 C    1.204   107 H    0.897
    88   6 C    3.923 --    89 C    1.370    86 C    1.337   108 H    0.963
    89   6 C    3.927 --    88 C    1.370    93 N    1.297    90 C    1.115
    90   6 C    3.961 --    91 C    1.715    89 C    1.115   109 H    0.973
    91   6 C    3.961 --    90 C    1.715    92 C    1.124   110 H    0.968
    92   6 C    3.922 --    93 N    1.361    94 C    1.246    91 C    1.124
    93   7 N    3.002 --    92 C    1.361    89 C    1.297
    94   6 C    3.928 --    95 C    1.249    92 C    1.246    77 C    1.183
    95   6 C    3.908 --    94 C    1.249    96 C    1.240    99 N    1.226
    96   6 C    3.953 --    97 C    1.589    95 C    1.240   111 H    0.969
    97   6 C    3.949 --    96 C    1.589    98 C    1.227   112 H    0.973
    98   6 C    3.915 --   100 C    1.337    97 C    1.227    99 N    1.204
    99   7 N    3.586 --    95 C    1.226    98 C    1.204   113 H    0.897
   100   6 C    3.922 --   101 C    1.370    98 C    1.337   114 H    0.963
   101   6 C    3.928 --   100 C    1.370   102 N    1.298    79 C    1.115
   102   7 N    3.001 --    81 C    1.359   101 C    1.298
   103   1 H    0.999 --    79 C    0.973
   104   1 H    0.999 --    80 C    0.970
   105   1 H    0.998 --    84 C    0.970
   106   1 H    0.998 --    85 C    0.973
   107   1 H    0.954 --    87 N    0.897
   108   1 H    0.997 --    88 C    0.963
   109   1 H    0.999 --    90 C    0.973
   110   1 H    0.999 --    91 C    0.968
   111   1 H    0.998 --    96 C    0.969
   112   1 H    0.998 --    97 C    0.973
   113   1 H    0.954 --    99 N    0.897
   114   1 H    0.997 --   100 C    0.963
 ---------------------------------------------------------------------------

molecular dipole:
                 x           y           z       tot (Debye)
 q only:       -0.005       0.004       0.006
   full:       -0.005      -0.004      -0.031       0.081

 projected vibrational frequencies (cm⁻¹)
eigval :       -0.00    -0.00    -0.00     0.00     0.00     0.00
eigval :        3.72     6.76     8.58    11.76    13.86    14.52
eigval :       24.99    31.36    39.71    42.00    43.20    46.03
eigval :       48.60    57.82    58.87    63.26    71.68    74.48
eigval :       83.43    93.91    95.85   106.07   109.40   114.92
eigval :      115.51   120.25   121.19   121.43   142.41   142.67
eigval :      144.32   168.44   169.85   177.45   183.02   188.18
eigval :      189.08   201.95   202.40   203.25   205.45   207.46
eigval :      234.62   259.10   264.34   265.16   266.35   267.75
eigval :      268.70   272.43   280.65   291.61   299.62   300.51
eigval :      304.82   324.10   330.94   334.82   339.32   340.08
eigval :      347.61   348.54   356.63   359.60   361.29   362.98
eigval :      363.63   365.09   376.47   394.36   394.42   394.52
eigval :      402.49   420.11   421.86   424.21   430.66   430.67
eigval :      444.74   445.43   447.26   448.85   498.52   499.30
eigval :      511.71   513.72   590.53   598.91   600.45   601.56
eigval :      602.32   604.93   606.30   607.27   625.87   627.82
eigval :      628.05   636.88   637.04   639.38   647.07   647.23
eigval :      649.66   650.10   650.64   651.07   653.46   653.93
eigval :      658.83   659.85   666.39   668.64   669.96   671.42
eigval :      673.58   714.25   714.27   723.07   723.21   728.72
eigval :      729.78   736.16   739.88   741.37   742.17   742.79
eigval :      748.20   748.36   754.95   760.75   761.16   761.26
eigval :      770.26   771.03   781.90   785.95   794.39   796.51
eigval :      798.45   798.55   804.75   805.74   806.28   807.27
eigval :      812.05   812.64   817.68   818.14   819.34   820.38
eigval :      827.75   828.01   836.30   837.02   837.79   838.85
eigval :      839.27   839.80   841.93   842.52   842.61   842.97
eigval :      844.25   844.32   852.34   852.35   853.90   854.89
eigval :      855.68   856.45   886.70   887.66   945.99   948.31
eigval :      959.31   959.82   960.13   970.96   972.32   972.78
eigval :      976.93   977.07   999.38   999.48  1000.32  1004.46
eigval :     1007.85  1009.20  1015.94  1016.05  1022.60  1030.78
eigval :     1032.01  1036.12  1051.99  1055.54  1057.09  1060.11
eigval :     1060.73  1062.06  1063.63  1063.68  1070.43  1070.59
eigval :     1071.10  1073.91  1074.87  1075.43  1096.98  1110.53
eigval :     1121.76  1121.98  1125.73  1131.18  1141.57  1150.05
eigval :     1157.90  1159.97  1174.77  1175.41  1182.29  1183.76
eigval :     1184.25  1188.90  1197.38  1204.67  1209.74  1215.02
eigval :     1230.95  1233.44  1233.72  1254.06  1255.90  1256.33
eigval :     1279.79  1285.54  1285.66  1293.76  1305.58  1305.97
eigval :     1328.88  1336.88  1338.70  1340.42  1346.01  1347.12
eigval :     1347.92  1350.18  1363.80  1365.88  1374.37  1374.50
eigval :     1376.93  1377.73  1383.33  1383.38  1383.44  1385.97
eigval :     1388.86  1388.95  1395.34  1401.70  1410.98  1443.29
eigval :     1458.99  1464.20  1475.50  1477.86  1479.64  1484.17
eigval :     1488.62  1501.03  1504.96  1505.00  1506.01  1506.92
eigval :     1508.13  1509.86  1510.54  1514.41  1514.70  1538.67
eigval :     1548.45  1550.18  1551.09  1554.70  1555.84  1557.32
eigval :     1560.73  1560.92  1582.73  1585.63  1585.79  1587.89
eigval :     1594.55  1594.60  2251.19  2257.42  3073.29  3073.59
eigval :     3076.21  3076.58  3077.36  3077.64  3086.42  3086.83
eigval :     3139.90  3140.03  3144.64  3144.78  3145.40  3145.78
eigval :     3155.05  3155.24  3156.41  3156.52  3160.10  3160.27
eigval :     3160.79  3161.28  3162.05  3162.27  3165.18  3165.53
eigval :     3168.94  3169.04  3173.57  3173.87  3175.60  3176.24
eigval :     3329.31  3332.78  3347.47  3349.32  3355.78  3357.55

   temp. (K)  partition function   enthalpy   heat capacity  entropy
                                   cal/mol     cal/K/mol   cal/K/mol   J/K/mol
 298.15  VIB  0.113E+30            35989.748    238.351    226.344
         ROT  0.485E+09              888.752      2.981     42.727
         INT  0.550E+38            36878.501    241.332    269.072
         TR   0.295E+29             1481.254      4.968     46.485
         TOT                       38359.7547   246.3002   315.5568  1320.2897

       T/K    H(0)-H(T)+PV         H(T)/Eh          T*S/Eh         G(T)/Eh
   ------------------------------------------------------------------------
    298.15    0.611302E-01    0.895982E+00    0.149931E+00    0.746051E+00
   ------------------------------------------------------------------------

         :::::::::::::::::::::::::::::::::::::::::::::::::::::
         ::                  THERMODYNAMIC                  ::
         :::::::::::::::::::::::::::::::::::::::::::::::::::::
         :: total free energy        -190.629920482608 Eh   ::
         ::.................................................::
         :: total energy             -191.375971655656 Eh   ::
         :: zero point energy           0.834852242169 Eh   ::
         :: G(RRHO) w/o ZPVE           -0.088801069121 Eh   ::
         :: G(RRHO) contrib.            0.746051173048 Eh   ::
         :::::::::::::::::::::::::::::::::::::::::::::::::::::

           -------------------------------------------------
          | TOTAL ENERGY             -191.375971655656 Eh   |
          | TOTAL ENTHALPY           -190.479989253344 Eh   |
          | TOTAL FREE ENERGY        -190.629920482608 Eh   |
          | GRADIENT NORM               0.000281586833 Eh/α |
          | HOMO-LUMO GAP               0.934988436775 eV   |
           -------------------------------------------------

 * finished run on 2021/11/19 at 15:17:58.958
