   * xtb version 6.4.1 (bd6e46d) compiled by 'conda@4901f00b25ba' on 2021-06-10
          program call               : /home/jeff/miniconda3/bin/xtb input_structure_1.xyz --gfn 2 --ohess normal --parallel 1 --etemp 300 --chrg 0 --uhf 0 -I det_control.in
          number of atoms            :                    74
          number of electrons        :                   250
          charge                     :                     0
          spin                       :                   0.0

   ID    Z sym.   atoms
    1   28 Ni     1, 39
    2    6 C      2-9, 11-15, 17-21, 23, 24, 37, 38, 40-47, 49-53, 55-59, 61,
                  62
    3    7 N      10, 16, 22, 25, 48, 54, 60, 63
    4    1 H      26-36, 64-74

          :  Hamiltonian                  GFN2-xTB          :
 * total energy  :  -133.3121744 Eh     change        0.2361855E-07 Eh
 * total energy  :  -133.8494424 Eh     change       -0.5372680E+00 Eh
 * total energy  :  -134.0190488 Eh     change       -0.1696065E+00 Eh
 * total energy  :  -134.1092737 Eh     change       -0.9022490E-01 Eh
 * total energy  :  -134.1690752 Eh     change       -0.5980151E-01 Eh
 * total energy  :  -134.2048191 Eh     change       -0.3574386E-01 Eh
 * total energy  :  -134.2286699 Eh     change       -0.2385077E-01 Eh
 * total energy  :  -134.2451399 Eh     change       -0.1647004E-01 Eh
 * total energy  :  -134.2565042 Eh     change       -0.1136428E-01 Eh
 * total energy  :  -134.2643936 Eh     change       -0.7889404E-02 Eh
 * total energy  :  -134.3061018 Eh     change       -0.9600923E-05 Eh
 * total energy  :  -134.3061116 Eh     change       -0.9818201E-05 Eh
 * total energy  :  -134.3061221 Eh     change       -0.1043871E-04 Eh
 * total energy  :  -134.3061332 Eh     change       -0.1110302E-04 Eh
 * total energy  :  -134.3061452 Eh     change       -0.1198011E-04 Eh
 * total energy  :  -134.3061580 Eh     change       -0.1289509E-04 Eh
 * total energy  :  -134.3061718 Eh     change       -0.1370391E-04 Eh
 * total energy  :  -134.3061859 Eh     change       -0.1413583E-04 Eh
 * total energy  :  -134.3061896 Eh     change       -0.3732184E-05 Eh
   *** GEOMETRY OPTIMIZATION CONVERGED AFTER 94 ITERATIONS ***

 final structure:
================
74
 xtb: 6.4.1 (bd6e46d)
Ni        9.21582777632783   -0.05760655400166    0.03130352662992
C        11.64208009095261   -3.46759900891992    0.60179826267167
C        12.61008267245328   -2.52645166639036    0.53162696576910
C        11.95216490609202   -1.28087220967886    0.27642841692412
C        12.64414207481196   -0.08517046801194    0.06569397779852
C        11.97576036890250    1.12093653618055   -0.16393144729365
C        12.65889068018958    2.35447329843051   -0.41336536399778
C        11.70719086269792    3.31029044505891   -0.50659041489573
C        10.44814963648575    2.65246830068495   -0.32459378080297
N        10.62649176531820    1.30793052916465   -0.13674110055007
C         9.24267176934102    3.32364862525636   -0.31176554813456
C         8.02538536845335    2.68991285351190   -0.17208563496359
C         6.77173104278425    3.38757218330887   -0.16183899697073
C         5.80730073210725    2.44593091753637   -0.07669051317219
C         6.47589661855338    1.17689294959389   -0.03366949655599
N         7.83081841125349    1.34119747760255   -0.07718197579127
C         5.80636350345110   -0.02925734848404    0.00555411196695
C         6.45503241561531   -1.24643144998167    0.05369354904632
C         5.76482724134656   -2.50421301739678    0.08490279965879
C         6.71212482702075   -3.46197813526748    0.18175835825561
C         7.97696463229635   -2.78534276931864    0.21124261623286
N         7.80625332697307   -1.43338317155071    0.11652431608087
C         9.18138196350399   -3.43959770842648    0.36663499701010
C        10.39738612773761   -2.78838219530334    0.40072857444145
N        10.60078150988907   -1.44618436657470    0.22229026658264
H        11.73866498441562   -4.52191297427972    0.77405291941484
H        13.66964589038061   -2.63849008798001    0.64830928518908
H        13.72210956912500    2.44921432086912   -0.51283818029142
H        11.82389164281563    4.36187820760045   -0.68300332005347
H         9.25364212675998    4.39718959920848   -0.42238240727682
H         6.67114817198439    4.45424819972142   -0.21776322029319
H         4.74215000200292    2.57090382552742   -0.04738183683381
H         4.72730178361252   -0.02025297335705   -0.00239215567158
H         4.69827577941206   -2.61134967544150    0.04011024623414
H         6.59296898715749   -4.52692121082992    0.23422644213007
H         9.17294563057792   -4.51350144812283    0.47397010617684
C        14.04661216831474   -0.09028019470498    0.08467611142194
C        15.25905285619123   -0.08194959075962    0.10394114160747
Ni       20.08005937176567    0.05884107495376   -0.03265992078827
C        17.55591278626793    3.32829263729726    0.82763218466940
C        16.61627205635793    2.36582020199256    0.68845077636298
C        17.31155468156493    1.16261668052086    0.34345453609780
C        16.66117491547191   -0.05322526132937    0.11009171482193
C        17.37312011034906   -1.24063577333853   -0.08078197843386
C        16.73830077772179   -2.51631286104579   -0.21964597413772
C        17.72678367373178   -3.43819712304583   -0.25420569869125
C        18.96108053980906   -2.71665267947970   -0.17097523112090
N        18.72949600287047   -1.37093976407089   -0.07532448529964
C        20.19727191909711   -3.32915928294893   -0.21212810822405
C        21.38452602297489   -2.62883448553543   -0.27085150209296
C        22.66387205030532   -3.25996938479244   -0.42477998383031
C        23.56971245489331   -2.26721250670970   -0.56036633735276
C        22.84364652825064   -1.03317091355962   -0.46413873095786
N        21.51143356967316   -1.26876160514542   -0.28027370194202
C        23.44471170728406    0.20748545724843   -0.53531435466802
C        22.75541843044986    1.38613297499832   -0.33276281036729
C        23.38902092648566    2.67349737205503   -0.30663947651016
C        22.43172281894532    3.56834617131655    0.02119802040731
C        21.21275470769148    2.82722892318360    0.17322707632136
N        21.42304371579753    1.49717923211641   -0.05484940296995
C        20.00632554633833    3.40980130152543    0.50372674276454
C        18.81836902328491    2.70948471847778    0.55488973179613
N        18.65524344769616    1.37702603852882    0.28411544764903
H        17.42765085748115    4.36259247618112    1.08131162997362
H        15.55509932368284    2.43500479620652    0.82488662698150
H        15.67816660305436   -2.66182824965102   -0.28038567943544
H        17.65026185918045   -4.50459865238561   -0.34090046977150
H        20.23378148480273   -4.40733897768149   -0.24413302171787
H        22.81856058204404   -4.32155313339433   -0.43824199218679
H        24.63066699801649   -2.33655298701343   -0.70389833233235
H        24.50683401025281    0.25626385884301   -0.71978758483006
H        24.43037748769433    2.84057354326749   -0.50334005125799
H        22.51530357872087    4.63051460441550    0.14721255765297
H        19.98418451267029    4.47067953352554    0.70093918571489

          :  Hamiltonian                  GFN2-xTB          :
         :: gradient norm              0.000187096738 Eh/a0 ::
         :: HOMO-LUMO gap              1.332111498893 eV    ::
         :: SCC energy              -136.542314049718 Eh    ::
         :: -> dispersion             -0.120119023677 Eh    ::
         :: repulsion energy           2.237493336451 Eh    ::

    * Orbital Energies and Occupations

         #    Occupation            Energy/Eh            Energy/eV
      -------------------------------------------------------------
         1        2.0000           -0.6748164             -18.3627
       ...           ...                  ...                  ...
       113        2.0000           -0.4035262             -10.9805
       114        2.0000           -0.3743641             -10.1870
       115        2.0000           -0.3732093             -10.1555
       116        2.0000           -0.3726517             -10.1404
       117        2.0000           -0.3703850             -10.0787
       118        2.0000           -0.3703535             -10.0778
       119        2.0000           -0.3660786              -9.9615
       120        2.0000           -0.3660657              -9.9612
       121        2.0000           -0.3660245              -9.9600
       122        2.0000           -0.3660123              -9.9597
       123        2.0000           -0.3601757              -9.8009
       124        2.0000           -0.3601005              -9.7988
       125        2.0000           -0.3580005              -9.7417 (HOMO)
       126                         -0.3090464              -8.4096 (LUMO)
       127                         -0.2983496              -8.1185
       128                         -0.2983488              -8.1185
       129                         -0.2968095              -8.0766
       130                         -0.2957457              -8.0477
       131                         -0.2916839              -7.9371
       132                         -0.2631285              -7.1601
       133                         -0.2535307              -6.8989
       134                         -0.1929726              -5.2511
       135                         -0.1927548              -5.2451
       136                         -0.1796526              -4.8886
       ...                                ...                  ...
       240                          1.4104894              38.3814
      -------------------------------------------------------------
                  HL-Gap            0.0489541 Eh            1.3321 eV

     #   Z          covCN         q      C6AA      α(0)
     1  28 Ni       3.027    -0.294   189.418    28.398
     2   6 C        3.022    -0.052    29.275     8.875
     3   6 C        3.023    -0.050    29.218     8.867
     4   6 C        3.181     0.073    25.957     8.317
     5   6 C        2.955     0.027    27.404     8.586
     6   6 C        3.182     0.073    25.952     8.315
     7   6 C        3.022    -0.051    29.239     8.870
     8   6 C        3.023    -0.052    29.274     8.875
     9   6 C        3.170     0.073    26.014     8.332
    10   7 N        2.627    -0.047    22.162     6.992
    11   6 C        2.904    -0.042    29.034     8.835
    12   6 C        3.168     0.074    26.003     8.332
    13   6 C        3.020    -0.051    29.249     8.871
    14   6 C        3.021    -0.051    29.251     8.872
    15   6 C        3.168     0.074    25.996     8.331
    16   7 N        2.627    -0.047    22.156     6.991
    17   6 C        2.904    -0.043    29.076     8.841
    18   6 C        3.167     0.074    25.997     8.331
    19   6 C        3.021    -0.051    29.251     8.872
    20   6 C        3.020    -0.051    29.249     8.871
    21   6 C        3.168     0.074    26.003     8.332
    22   7 N        2.626    -0.047    22.156     6.991
    23   6 C        2.904    -0.042    29.034     8.835
    24   6 C        3.170     0.073    26.012     8.332
    25   7 N        2.627    -0.047    22.164     6.992
    26   1 H        0.926     0.035     2.513     2.479
    27   1 H        0.926     0.036     2.506     2.476
    28   1 H        0.926     0.037     2.485     2.465
    29   1 H        0.926     0.035     2.512     2.479
    30   1 H        0.926     0.049     2.333     2.388
    31   1 H        0.926     0.036     2.508     2.476
    32   1 H        0.926     0.036     2.509     2.477
    33   1 H        0.926     0.048     2.341     2.393
    34   1 H        0.926     0.036     2.509     2.477
    35   1 H        0.926     0.036     2.508     2.476
    36   1 H        0.926     0.049     2.333     2.389
    37   6 C        1.989    -0.029    31.823     9.110
    38   6 C        1.989    -0.029    31.826     9.111
    39  28 Ni       3.036    -0.294   189.434    28.399
    40   6 C        3.022    -0.052    29.274     8.875
    41   6 C        3.022    -0.051    29.239     8.870
    42   6 C        3.181     0.073    25.960     8.317
    43   6 C        2.955     0.027    27.402     8.586
    44   6 C        3.180     0.073    25.963     8.318
    45   6 C        3.022    -0.050    29.217     8.866
    46   6 C        3.022    -0.052    29.275     8.875
    47   6 C        3.169     0.073    26.017     8.333
    48   7 N        2.630    -0.047    22.161     6.992
    49   6 C        2.904    -0.042    29.032     8.835
    50   6 C        3.167     0.074    26.008     8.333
    51   6 C        3.020    -0.051    29.249     8.871
    52   6 C        3.021    -0.051    29.251     8.872
    53   6 C        3.166     0.074    26.003     8.333
    54   7 N        2.629    -0.047    22.152     6.990
    55   6 C        2.903    -0.043    29.073     8.841
    56   6 C        3.166     0.074    26.003     8.333
    57   6 C        3.021    -0.051    29.251     8.872
    58   6 C        3.020    -0.051    29.250     8.871
    59   6 C        3.166     0.074    26.011     8.334
    60   7 N        2.629    -0.046    22.149     6.990
    61   6 C        2.904    -0.041    29.030     8.835
    62   6 C        3.169     0.073    26.021     8.334
    63   7 N        2.630    -0.047    22.155     6.991
    64   1 H        0.926     0.035     2.512     2.478
    65   1 H        0.926     0.037     2.489     2.467
    66   1 H        0.926     0.036     2.504     2.474
    67   1 H        0.926     0.035     2.513     2.479
    68   1 H        0.926     0.049     2.334     2.389
    69   1 H        0.926     0.036     2.508     2.476
    70   1 H        0.926     0.036     2.509     2.477
    71   1 H        0.926     0.048     2.342     2.393
    72   1 H        0.926     0.036     2.509     2.477
    73   1 H        0.926     0.036     2.508     2.477
    74   1 H        0.926     0.049     2.334     2.389

Wiberg/Mayer (AO) data.
largest (>0.10) Wiberg bond orders for each atom

     #   Z sym  total        # sym  WBO       # sym  WBO       # sym  WBO
 ---------------------------------------------------------------------------
     1  28 Ni   3.480 --    25 N    0.753    10 N    0.753    22 N    0.752
                            16 N    0.752
     2   6 C    3.953 --     3 C    1.646    24 C    1.169    26 H    0.972
     3   6 C    3.958 --     2 C    1.646     4 C    1.178    27 H    0.966
     4   6 C    3.922 --    25 N    1.259     5 C    1.259     3 C    1.178
     5   6 C    3.945 --     4 C    1.259     6 C    1.258    37 C    1.166
     6   6 C    3.922 --    10 N    1.260     5 C    1.258     7 C    1.178
     7   6 C    3.958 --     8 C    1.646     6 C    1.178    28 H    0.967
     8   6 C    3.953 --     7 C    1.646     9 C    1.169    29 H    0.972
     9   6 C    3.931 --    11 C    1.355    10 N    1.228     8 C    1.169
    10   7 N    3.577 --     6 C    1.260     9 C    1.228     1 Ni   0.753
    11   6 C    3.936 --     9 C    1.355    12 C    1.354    30 H    0.964
    12   6 C    3.935 --    11 C    1.354    16 N    1.239    13 C    1.161
    13   6 C    3.957 --    14 C    1.661    12 C    1.161    31 H    0.972
    14   6 C    3.955 --    13 C    1.661    15 C    1.161    32 H    0.972
    15   6 C    3.937 --    17 C    1.353    16 N    1.242    14 C    1.161
    16   7 N    3.572 --    15 C    1.242    12 C    1.239     1 Ni   0.752
    17   6 C    3.932 --    18 C    1.353    15 C    1.353    33 H    0.964
    18   6 C    3.937 --    17 C    1.353    22 N    1.242    19 C    1.161
    19   6 C    3.955 --    20 C    1.661    18 C    1.161    34 H    0.972
    20   6 C    3.957 --    19 C    1.661    21 C    1.161    35 H    0.972
    21   6 C    3.935 --    23 C    1.354    22 N    1.239    20 C    1.161
    22   7 N    3.572 --    18 C    1.242    21 C    1.239     1 Ni   0.752
    23   6 C    3.936 --    24 C    1.354    21 C    1.354    36 H    0.964
    24   6 C    3.931 --    23 C    1.354    25 N    1.228     2 C    1.169
    25   7 N    3.577 --     4 C    1.259    24 C    1.228     1 Ni   0.753
    26   1 H    0.998 --     2 C    0.972
    27   1 H    0.998 --     3 C    0.966
    28   1 H    0.998 --     7 C    0.967
    29   1 H    0.998 --     8 C    0.972
    30   1 H    0.996 --    11 C    0.964
    31   1 H    0.998 --    13 C    0.972
    32   1 H    0.998 --    14 C    0.972
    33   1 H    0.997 --    17 C    0.964
    34   1 H    0.998 --    19 C    0.972
    35   1 H    0.998 --    20 C    0.972
    36   1 H    0.996 --    23 C    0.964
    37   6 C    3.929 --    38 C    2.586     5 C    1.166
    38   6 C    3.930 --    37 C    2.586    43 C    1.166
    39  28 Ni   3.483 --    63 N    0.753    48 N    0.753    60 N    0.752
                            54 N    0.752
    40   6 C    3.953 --    41 C    1.645    62 C    1.170    64 H    0.972
    41   6 C    3.958 --    40 C    1.645    42 C    1.178    65 H    0.967
    42   6 C    3.922 --    63 N    1.261    43 C    1.256    41 C    1.178
    43   6 C    3.945 --    44 C    1.259    42 C    1.256    38 C    1.166
    44   6 C    3.922 --    43 C    1.259    48 N    1.259    45 C    1.178
    45   6 C    3.958 --    46 C    1.646    44 C    1.178    66 H    0.966
    46   6 C    3.953 --    45 C    1.646    47 C    1.170    67 H    0.972
    47   6 C    3.931 --    49 C    1.353    48 N    1.229    46 C    1.170
    48   7 N    3.577 --    44 C    1.259    47 C    1.229    39 Ni   0.753
    49   6 C    3.935 --    50 C    1.354    47 C    1.353    68 H    0.964
    50   6 C    3.935 --    49 C    1.354    54 N    1.238    51 C    1.161
    51   6 C    3.957 --    52 C    1.661    50 C    1.161    69 H    0.972
    52   6 C    3.955 --    51 C    1.661    53 C    1.161    70 H    0.972
    53   6 C    3.937 --    55 C    1.352    54 N    1.242    52 C    1.161
    54   7 N    3.572 --    53 C    1.242    50 C    1.238    39 Ni   0.752
    55   6 C    3.932 --    56 C    1.353    53 C    1.352    71 H    0.964
    56   6 C    3.937 --    55 C    1.353    60 N    1.241    57 C    1.161
    57   6 C    3.955 --    58 C    1.661    56 C    1.161    72 H    0.972
    58   6 C    3.957 --    57 C    1.661    59 C    1.162    73 H    0.972
    59   6 C    3.935 --    61 C    1.353    60 N    1.239    58 C    1.162
    60   7 N    3.572 --    56 C    1.241    59 C    1.239    39 Ni   0.752
    61   6 C    3.936 --    62 C    1.355    59 C    1.353    74 H    0.964
    62   6 C    3.931 --    61 C    1.355    63 N    1.226    40 C    1.170
    63   7 N    3.577 --    42 C    1.261    62 C    1.226    39 Ni   0.753
    64   1 H    0.998 --    40 C    0.972
    65   1 H    0.998 --    41 C    0.967
    66   1 H    0.998 --    45 C    0.966
    67   1 H    0.998 --    46 C    0.972
    68   1 H    0.996 --    49 C    0.964
    69   1 H    0.998 --    51 C    0.972
    70   1 H    0.998 --    52 C    0.972
    71   1 H    0.997 --    55 C    0.964
    72   1 H    0.998 --    57 C    0.972
    73   1 H    0.998 --    58 C    0.972
    74   1 H    0.996 --    61 C    0.964
 ---------------------------------------------------------------------------

molecular dipole:
                 x           y           z       tot (Debye)
 q only:        0.001       0.013      -0.006
   full:        0.000       0.014      -0.014       0.051

 projected vibrational frequencies (cm⁻¹)
eigval :       -0.00    -0.00    -0.00    -0.00     0.00     0.00
eigval :       -5.63     5.47     9.33    20.97    27.22    29.03
eigval :       36.61    58.83    68.50    84.74    99.27   103.25
eigval :      114.29   120.34   126.03   140.51   177.04   178.39
eigval :      188.35   214.21   225.63   226.22   230.40   231.36
eigval :      237.38   238.70   245.55   246.34   248.08   252.02
eigval :      273.03   273.90   274.52   275.16   279.86   312.29
eigval :      324.82   326.60   329.90   343.26   345.51   354.75
eigval :      365.14   373.68   382.39   386.73   388.59   389.80
eigval :      398.17   402.41   404.65   422.15   423.57   426.26
eigval :      434.38   436.84   462.38   463.24   500.40   516.97
eigval :      606.26   616.52   616.79   622.56   623.01   626.31
eigval :      626.38   639.41   639.80   644.59   645.58   658.18
eigval :      658.33   665.85   667.02   671.89   673.97   721.83
eigval :      722.25   723.77   724.30   757.09   761.03   764.70
eigval :      768.24   778.36   778.98   781.29   781.83   792.99
eigval :      800.08   800.38   803.88   806.50   807.32   811.75
eigval :      813.47   819.63   820.99   827.21   828.63   834.52
eigval :      835.41   837.98   838.72   844.55   845.24   845.70
eigval :      847.71   847.89   848.00   848.06   856.78   886.86
eigval :      955.87   987.61   988.87  1001.70  1002.46  1016.23
eigval :     1019.87  1020.71  1022.97  1027.33  1028.23  1036.08
eigval :     1036.68  1037.11  1041.66  1058.03  1063.35  1067.85
eigval :     1068.80  1070.82  1072.02  1073.92  1075.05  1096.59
eigval :     1135.16  1141.03  1141.31  1156.66  1171.91  1172.61
eigval :     1175.38  1189.04  1223.73  1226.76  1243.26  1245.31
eigval :     1281.02  1282.70  1294.64  1303.37  1304.47  1306.78
eigval :     1316.08  1317.32  1327.80  1330.75  1332.23  1333.40
eigval :     1339.55  1346.76  1350.89  1356.91  1359.06  1359.31
eigval :     1370.81  1461.98  1465.44  1467.36  1478.08  1486.15
eigval :     1498.32  1513.20  1514.24  1515.64  1518.92  1530.18
eigval :     1532.10  1532.56  1541.30  1544.10  1545.30  1560.60
eigval :     1562.58  1570.58  1571.97  1581.38  1582.96  1613.52
eigval :     1615.28  2266.39  3095.64  3095.96  3096.25  3096.36
eigval :     3097.35  3097.56  3150.23  3150.29  3150.60  3150.66
eigval :     3156.45  3156.66  3156.84  3157.25  3164.01  3164.10
eigval :     3164.67  3165.23  3173.00  3174.90  3175.45  3176.54

   temp. (K)  partition function   enthalpy   heat capacity  entropy
                                   cal/mol     cal/K/mol   cal/K/mol   J/K/mol
 298.15  VIB  0.581E+18            23176.184    156.989    141.757
         ROT  0.125E+09              888.752      2.981     40.038
         INT  0.729E+26            24064.936    159.970    181.795
         TR   0.201E+29             1481.254      4.968     45.727
         TOT                       25546.1900   164.9377   227.5225   951.9543

       T/K    H(0)-H(T)+PV         H(T)/Eh          T*S/Eh         G(T)/Eh
   ------------------------------------------------------------------------
    298.15    0.407104E-01    0.561817E+00    0.108103E+00    0.453714E+00
   ------------------------------------------------------------------------

         :::::::::::::::::::::::::::::::::::::::::::::::::::::
         ::                  THERMODYNAMIC                  ::
         :::::::::::::::::::::::::::::::::::::::::::::::::::::
         :: total free energy        -133.852475959499 Eh   ::
         ::.................................................::
         :: total energy             -134.306189622876 Eh   ::
         :: zero point energy           0.521106519395 Eh   ::
         :: G(RRHO) w/o ZPVE           -0.067392856018 Eh   ::
         :: G(RRHO) contrib.            0.453713663377 Eh   ::
         :::::::::::::::::::::::::::::::::::::::::::::::::::::

           -------------------------------------------------
          | TOTAL ENERGY             -134.306189622876 Eh   |
          | TOTAL ENTHALPY           -133.744372658429 Eh   |
          | TOTAL FREE ENERGY        -133.852475959499 Eh   |
          | GRADIENT NORM               0.000186890779 Eh/α |
          | HOMO-LUMO GAP               1.332109529667 eV   |
           -------------------------------------------------

 * finished run on 2021/11/19 at 10:37:42.113
