   * xtb version 6.4.1 (bd6e46d) compiled by 'conda@4901f00b25ba' on 2021-06-10
          program call               : /home/jeff/miniconda3/bin/xtb input_structure_1.xyz --gfn 2 --ohess normal --parallel 1 --etemp 300 --chrg 0 --uhf 0 -I det_control.in
          number of atoms            :                    78
          number of electrons        :                   242
          charge                     :                     0
          spin                       :                   0.0

   ID    Z sym.   atoms
    1    6 C      1-8, 10-14, 16-20, 22, 23, 38-49, 51-55, 57-61, 63, 64
    2    7 N      9, 15, 21, 24, 50, 56, 62, 65
    3    1 H      25-37, 66-78

          :  Hamiltonian                  GFN2-xTB          :
 * total energy  :  -129.2497290 Eh     change       -0.3242491E-08 Eh
 * total energy  :  -130.3029843 Eh     change       -0.1053255E+01 Eh
 * total energy  :  -130.4205328 Eh     change       -0.1175485E+00 Eh
 * total energy  :  -130.4971083 Eh     change       -0.7657551E-01 Eh
 * total energy  :  -130.5465783 Eh     change       -0.4947003E-01 Eh
 * total energy  :  -130.5821265 Eh     change       -0.3554814E-01 Eh
 * total energy  :  -130.6061262 Eh     change       -0.2399977E-01 Eh
 * total energy  :  -130.6238836 Eh     change       -0.1775735E-01 Eh
 * total energy  :  -130.6390909 Eh     change       -0.1520733E-01 Eh
 * total energy  :  -130.6517376 Eh     change       -0.1264671E-01 Eh
 * total energy  :  -130.7288252 Eh     change       -0.9713779E-05 Eh
 * total energy  :  -130.7288405 Eh     change       -0.1534455E-04 Eh
 * total energy  :  -130.7288531 Eh     change       -0.1251564E-04 Eh
 * total energy  :  -130.7288607 Eh     change       -0.7625432E-05 Eh
 * total energy  :  -130.7288664 Eh     change       -0.5679591E-05 Eh
 * total energy  :  -130.7288720 Eh     change       -0.5672157E-05 Eh
 * total energy  :  -130.7288779 Eh     change       -0.5902822E-05 Eh
 * total energy  :  -130.7288833 Eh     change       -0.5337511E-05 Eh
 * total energy  :  -130.7288878 Eh     change       -0.4541594E-05 Eh
   *** GEOMETRY OPTIMIZATION CONVERGED AFTER 56 ITERATIONS ***

 final structure:
================
78
 xtb: 6.4.1 (bd6e46d)
C        10.50590926285216    3.42228488730442    0.32439070144160
C        11.46109073519719    2.47507604539720    0.24941130149226
C        10.75985139684183    1.21225615759206    0.10083632407084
C        11.42127439515232   -0.02738539115645   -0.00764750545090
C        10.77132237087023   -1.26693849066952   -0.12580325330639
C        11.37678284732543   -2.54898317224212   -0.21501450025778
C        10.37436780307865   -3.47059253527813   -0.31238165386310
C         9.13531279200423   -2.77079659502568   -0.28821375538429
N         9.42769373531127   -1.44570018724108   -0.17187569008164
C         7.86809585598880   -3.32773565706677   -0.37747109688181
C         6.65283261557392   -2.65721153180620   -0.37221228779313
C         5.37473495549197   -3.34423484545920   -0.49041212095734
C         4.42905880510549   -2.38737290082258   -0.45422250753308
C         5.13657703516584   -1.12423144726151   -0.31117254315587
N         6.47055798899554   -1.32457726131081   -0.26648273224452
C         4.49316948478553    0.10431953382532   -0.23047606977023
C         5.11776687150695    1.33369058604664   -0.08731494074622
C         4.51079164486525    2.61879923089179    0.00724550614260
C         5.50851374003677    3.53835661602157    0.14189544558133
C         6.75075992912997    2.83963157185607    0.13149750873584
N         6.46251697670183    1.51884395352793   -0.00824994582167
C         8.01751674787455    3.39397929392694    0.23942715791813
C         9.23394001804892    2.72814080727376    0.21629733943170
N         9.42911378442932    1.39387889213649    0.08567947904627
H        10.61440831027877    4.48375176504950    0.43879059217577
H        12.52781259727089    2.58175343415638    0.28972434723040
H        12.43449964022708   -2.72667341007406   -0.20330501020302
H        10.47315327648006   -4.53547032442826   -0.39471812584075
H         8.75173220603975   -0.69208157109407   -0.12753070182475
H         7.82559681584623   -4.40437526596496   -0.46751400525807
H         5.26015420108658   -4.40697255390779   -0.58748105868230
H         3.36206285472278   -2.48614737276862   -0.51426909347458
H         3.41386683870999    0.10202189463584   -0.28081381109448
H         3.45392991202342    2.79978052300177   -0.02451519453002
H         5.40821185545016    4.60209943356437    0.23871033105424
H         7.13650610720879    0.76406384776478   -0.04972923721485
H         8.06087498207079    4.46894083776609    0.34832470342996
C        12.81795957080760   -0.03006888656069    0.00050935929874
C        14.03644806674779   -0.02339779875407   -0.00676207925590
C        15.37760654669068   -0.01486940783104   -0.00819325576860
C        16.59607298286690   -0.00444496490853   -0.01346511682849
C        24.01539266834956    3.37315722084999    0.40481829936156
C        24.96819749425531    2.42276642537785    0.39401028163773
C        24.27012214620381    1.15101358678405    0.28501176049058
C        24.92247220424626   -0.07456419759087    0.23774365011659
C        24.30664302102501   -1.31163765958831    0.12651185501809
C        24.92256591651767   -2.59451823779134    0.06583712606997
C        23.93133682456039   -3.52406666423842   -0.04620258192686
C        22.68428981499671   -2.83391442055416   -0.05530138982065
N        22.96328360635697   -1.50801817391948    0.05081000312840
C        21.42164712369683   -3.39985370474659   -0.15069513826995
C        20.20034957007425   -2.74258098324282   -0.14779684414773
C        18.93371448244810   -3.44866001333755   -0.24022154205427
C        17.97149113099339   -2.50674117325704   -0.19350419649404
C        18.66315774734099   -1.23536380098608   -0.07707440723434
N        19.99516471778472   -1.40677732976450   -0.05367972951642
C        17.99272415478620    0.00178984102583   -0.00160765391624
C        18.63376930724432    1.24840471036175    0.08824543493673
C        18.01935340255656    2.52798326111672    0.14586483599110
C        19.01525255042041    3.45852599943947    0.22302679386909
C        20.25913908222407    2.76696432520882    0.21719701643755
N        19.97605844240749    1.43747254638064    0.13222715883709
C        21.52225357807982    3.33507830551093    0.29344384682344
C        22.74245345254236    2.67371351056259    0.30520161102952
N        22.93471366139471    1.34016302652296    0.23476350984922
H        24.12211799367568    4.43894559009548    0.47306256719170
H        26.03442347430670    2.53114318313565    0.45101027857365
H        26.00166045407794   -0.06319454305067    0.28899943029804
H        25.98060439145273   -2.76730911713644    0.10343996174412
H        24.03910578825426   -4.58920885966710   -0.11569838046285
H        22.28448228812897   -0.75669887651634    0.07189268356811
H        21.38629989853154   -4.47761554797287   -0.23121233622099
H        18.83308512226224   -4.51361701294510   -0.32573567436720
H        16.90566936919228   -2.62231781938729   -0.23342698601373
H        16.96045869446905    2.69797765517521    0.12810540707224
H        18.90901176195031    4.52434448960842    0.28008502578610
H        20.65706224915068    0.68750107144862    0.10714344620374
H        21.55675485718867    4.41391264701293    0.35674307258486

          :  Hamiltonian                  GFN2-xTB          :
         :: gradient norm              0.000355042743 Eh/a0 ::
         :: HOMO-LUMO gap              1.103733192127 eV    ::
         :: SCC energy              -133.154663312953 Eh    ::
         :: -> dispersion             -0.104896084989 Eh    ::
         :: repulsion energy           2.426932719780 Eh    ::

    * Orbital Energies and Occupations

         #    Occupation            Energy/Eh            Energy/eV
      -------------------------------------------------------------
         1        2.0000           -0.6833449             -18.5948
       ...           ...                  ...                  ...
       109        2.0000           -0.3917051             -10.6588
       110        2.0000           -0.3885287             -10.5724
       111        2.0000           -0.3875706             -10.5463
       112        2.0000           -0.3874683             -10.5436
       113        2.0000           -0.3872924             -10.5388
       114        2.0000           -0.3714784             -10.1084
       115        2.0000           -0.3713621             -10.1053
       116        2.0000           -0.3705045             -10.0819
       117        2.0000           -0.3705026             -10.0819
       118        2.0000           -0.3681540             -10.0180
       119        2.0000           -0.3679585             -10.0127
       120        2.0000           -0.3623673              -9.8605
       121        2.0000           -0.3487971              -9.4913 (HOMO)
       122                         -0.3082357              -8.3875 (LUMO)
       123                         -0.2973608              -8.0916
       124                         -0.2968578              -8.0779
       125                         -0.2931090              -7.9759
       126                         -0.2628705              -7.1531
       127                         -0.2541756              -6.9165
       128                         -0.2240060              -6.0955
       129                         -0.2049347              -5.5766
       130                         -0.1892452              -5.1496
       131                         -0.1878943              -5.1129
       132                         -0.1714619              -4.6657
       ...                                ...                  ...
       234                          1.6352366              44.4971
      -------------------------------------------------------------
                  HL-Gap            0.0405615 Eh            1.1037 eV

     #   Z          covCN         q      C6AA      α(0)
     1   6 C        3.016    -0.055    29.341     8.885
     2   6 C        3.009    -0.053    29.300     8.879
     3   6 C        3.196     0.087    25.569     8.244
     4   6 C        2.952     0.012    27.749     8.640
     5   6 C        3.097     0.064    26.452     8.429
     6   6 C        3.027    -0.050    29.207     8.865
     7   6 C        3.034    -0.052    29.254     8.872
     8   6 C        3.073     0.064    26.488     8.438
     9   7 N        2.785    -0.081    22.816     7.094
    10   6 C        2.899    -0.055    29.369     8.886
    11   6 C        3.171     0.087    25.719     8.285
    12   6 C        3.012    -0.054    29.317     8.882
    13   6 C        3.010    -0.054    29.319     8.882
    14   6 C        3.174     0.086    25.708     8.281
    15   7 N        1.870    -0.321    29.180     8.007
    16   6 C        2.899    -0.057    29.413     8.892
    17   6 C        3.073     0.065    26.470     8.436
    18   6 C        3.026    -0.051    29.242     8.870
    19   6 C        3.031    -0.051    29.233     8.869
    20   6 C        3.069     0.065    26.466     8.436
    21   7 N        2.787    -0.081    22.813     7.094
    22   6 C        2.899    -0.055    29.368     8.885
    23   6 C        3.175     0.085    25.723     8.283
    24   7 N        1.870    -0.325    29.280     8.021
    25   1 H        0.926     0.018     2.759     2.597
    26   1 H        0.926     0.021     2.725     2.581
    27   1 H        0.926     0.043     2.407     2.426
    28   1 H        0.926     0.041     2.432     2.439
    29   1 H        0.860     0.214     1.037     1.596
    30   1 H        0.925     0.047     2.361     2.403
    31   1 H        0.926     0.019     2.744     2.591
    32   1 H        0.926     0.019     2.744     2.591
    33   1 H        0.926     0.046     2.371     2.408
    34   1 H        0.926     0.042     2.426     2.436
    35   1 H        0.926     0.042     2.427     2.436
    36   1 H        0.860     0.214     1.036     1.595
    37   1 H        0.925     0.047     2.361     2.403
    38   6 C        1.996    -0.023    31.641     9.084
    39   6 C        1.963    -0.011    31.375     9.046
    40   6 C        1.963    -0.011    31.375     9.046
    41   6 C        1.996    -0.023    31.641     9.084
    42   6 C        3.012    -0.054    29.317     8.882
    43   6 C        3.010    -0.054    29.319     8.882
    44   6 C        3.174     0.086    25.708     8.281
    45   6 C        2.899    -0.057    29.414     8.892
    46   6 C        3.073     0.065    26.470     8.436
    47   6 C        3.026    -0.051    29.242     8.870
    48   6 C        3.031    -0.051    29.233     8.869
    49   6 C        3.069     0.065    26.466     8.436
    50   7 N        2.787    -0.081    22.814     7.094
    51   6 C        2.899    -0.055    29.368     8.885
    52   6 C        3.175     0.085    25.723     8.283
    53   6 C        3.016    -0.055    29.341     8.885
    54   6 C        3.009    -0.053    29.299     8.879
    55   6 C        3.196     0.087    25.569     8.244
    56   7 N        1.870    -0.325    29.281     8.021
    57   6 C        2.952     0.012    27.748     8.640
    58   6 C        3.097     0.064    26.452     8.429
    59   6 C        3.027    -0.050    29.208     8.865
    60   6 C        3.034    -0.052    29.254     8.872
    61   6 C        3.073     0.064    26.488     8.439
    62   7 N        2.785    -0.081    22.815     7.094
    63   6 C        2.899    -0.055    29.369     8.886
    64   6 C        3.171     0.087    25.719     8.285
    65   7 N        1.870    -0.321    29.180     8.007
    66   1 H        0.926     0.019     2.744     2.591
    67   1 H        0.926     0.019     2.744     2.591
    68   1 H        0.926     0.046     2.371     2.408
    69   1 H        0.926     0.042     2.426     2.436
    70   1 H        0.926     0.042     2.427     2.436
    71   1 H        0.860     0.214     1.036     1.595
    72   1 H        0.925     0.047     2.361     2.403
    73   1 H        0.926     0.018     2.759     2.597
    74   1 H        0.926     0.021     2.724     2.581
    75   1 H        0.926     0.043     2.407     2.426
    76   1 H        0.926     0.041     2.432     2.439
    77   1 H        0.860     0.214     1.037     1.595
    78   1 H        0.925     0.047     2.361     2.403

Wiberg/Mayer (AO) data.
largest (>0.10) Wiberg bond orders for each atom

     #   Z sym  total        # sym  WBO       # sym  WBO       # sym  WBO
 ---------------------------------------------------------------------------
     1   6 C    3.960 --     2 C    1.716    23 C    1.115    25 H    0.973
     2   6 C    3.961 --     1 C    1.716     3 C    1.122    26 H    0.972
     3   6 C    3.917 --    24 N    1.362     4 C    1.244     2 C    1.122
     4   6 C    3.940 --     5 C    1.249     3 C    1.244    38 C    1.190
     5   6 C    3.902 --     4 C    1.249     6 C    1.237     9 N    1.226
     6   6 C    3.955 --     7 C    1.592     5 C    1.237    27 H    0.972
     7   6 C    3.948 --     6 C    1.592     8 C    1.224    28 H    0.973
     8   6 C    3.918 --    10 C    1.344     7 C    1.224     9 N    1.202
     9   7 N    3.590 --     5 C    1.226     8 C    1.202    29 H    0.900
    10   6 C    3.921 --    11 C    1.357     8 C    1.344    30 H    0.964
    11   6 C    3.939 --    10 C    1.357    15 N    1.324    12 C    1.107
    12   6 C    3.963 --    13 C    1.731    11 C    1.107    31 H    0.973
    13   6 C    3.962 --    12 C    1.731    14 C    1.109    32 H    0.973
    14   6 C    3.938 --    16 C    1.354    15 N    1.326    13 C    1.109
    15   7 N    3.001 --    14 C    1.326    11 C    1.324
    16   6 C    3.923 --    14 C    1.354    17 C    1.347    33 H    0.965
    17   6 C    3.921 --    16 C    1.347    18 C    1.216    21 N    1.210
    18   6 C    3.949 --    19 C    1.608    17 C    1.216    34 H    0.973
    19   6 C    3.953 --    18 C    1.608    20 C    1.215    35 H    0.973
    20   6 C    3.916 --    22 C    1.342    19 C    1.215    21 N    1.211
    21   7 N    3.586 --    20 C    1.211    17 C    1.210    36 H    0.901
    22   6 C    3.937 --    23 C    1.366    20 C    1.342    37 H    0.964
    23   6 C    3.924 --    22 C    1.366    24 N    1.299     1 C    1.115
    24   7 N    3.009 --     3 C    1.362    23 C    1.299
    25   1 H    0.999 --     1 C    0.973
    26   1 H    0.999 --     2 C    0.972
    27   1 H    0.998 --     6 C    0.972
    28   1 H    0.998 --     7 C    0.973
    29   1 H    0.954 --     9 N    0.900
    30   1 H    0.997 --    10 C    0.964
    31   1 H    0.999 --    12 C    0.973
    32   1 H    0.999 --    13 C    0.973
    33   1 H    0.997 --    16 C    0.965
    34   1 H    0.998 --    18 C    0.973
    35   1 H    0.998 --    19 C    0.973
    36   1 H    0.954 --    21 N    0.901
    37   1 H    0.997 --    22 C    0.964
    38   6 C    3.918 --    39 C    2.465     4 C    1.190    41 C    0.202
    39   6 C    3.925 --    38 C    2.465    40 C    1.308
    40   6 C    3.925 --    41 C    2.465    39 C    1.308
    41   6 C    3.918 --    40 C    2.465    57 C    1.190    38 C    0.202
    42   6 C    3.963 --    43 C    1.731    64 C    1.107    66 H    0.973
    43   6 C    3.962 --    42 C    1.731    44 C    1.109    67 H    0.973
    44   6 C    3.938 --    45 C    1.354    65 N    1.326    43 C    1.109
    45   6 C    3.923 --    44 C    1.354    46 C    1.347    68 H    0.965
    46   6 C    3.921 --    45 C    1.347    47 C    1.216    50 N    1.210
    47   6 C    3.949 --    48 C    1.608    46 C    1.216    69 H    0.973
    48   6 C    3.953 --    47 C    1.608    49 C    1.215    70 H    0.973
    49   6 C    3.916 --    51 C    1.342    48 C    1.215    50 N    1.211
    50   7 N    3.586 --    49 C    1.211    46 C    1.210    71 H    0.901
    51   6 C    3.937 --    52 C    1.366    49 C    1.342    72 H    0.964
    52   6 C    3.924 --    51 C    1.366    56 N    1.299    53 C    1.115
    53   6 C    3.960 --    54 C    1.716    52 C    1.115    73 H    0.973
    54   6 C    3.961 --    53 C    1.716    55 C    1.122    74 H    0.972
    55   6 C    3.917 --    56 N    1.362    57 C    1.244    54 C    1.122
    56   7 N    3.009 --    55 C    1.362    52 C    1.299
    57   6 C    3.940 --    58 C    1.249    55 C    1.244    41 C    1.190
    58   6 C    3.902 --    57 C    1.249    59 C    1.237    62 N    1.226
    59   6 C    3.955 --    60 C    1.592    58 C    1.237    75 H    0.972
    60   6 C    3.948 --    59 C    1.592    61 C    1.224    76 H    0.973
    61   6 C    3.918 --    63 C    1.344    60 C    1.224    62 N    1.202
    62   7 N    3.590 --    58 C    1.226    61 C    1.202    77 H    0.900
    63   6 C    3.921 --    64 C    1.357    61 C    1.344    78 H    0.964
    64   6 C    3.939 --    63 C    1.357    65 N    1.324    42 C    1.107
    65   7 N    3.001 --    44 C    1.326    64 C    1.324
    66   1 H    0.999 --    42 C    0.973
    67   1 H    0.999 --    43 C    0.973
    68   1 H    0.997 --    45 C    0.965
    69   1 H    0.998 --    47 C    0.973
    70   1 H    0.998 --    48 C    0.973
    71   1 H    0.954 --    50 N    0.901
    72   1 H    0.997 --    51 C    0.964
    73   1 H    0.999 --    53 C    0.973
    74   1 H    0.999 --    54 C    0.972
    75   1 H    0.998 --    59 C    0.972
    76   1 H    0.998 --    60 C    0.973
    77   1 H    0.954 --    62 N    0.900
    78   1 H    0.997 --    63 C    0.964
 ---------------------------------------------------------------------------

molecular dipole:
                 x           y           z       tot (Debye)
 q only:       -0.000       0.002       0.001
   full:       -0.000       0.003       0.001       0.007

 projected vibrational frequencies (cm⁻¹)
eigval :       -0.00    -0.00    -0.00     0.00     0.00     0.00
eigval :        5.69     7.75     8.75    19.68    34.06    41.54
eigval :       42.44    42.66    45.81    65.89    67.15    91.82
eigval :       93.51    99.73   112.80   114.82   117.19   131.77
eigval :      139.94   142.07   150.61   173.53   177.38   182.88
eigval :      190.00   201.74   202.35   205.15   258.90   260.08
eigval :      265.47   265.71   267.50   281.04   296.44   298.37
eigval :      299.95   324.66   339.45   343.01   348.29   357.42
eigval :      358.22   361.89   362.65   365.25   369.11   383.20
eigval :      394.02   394.13   420.32   421.97   430.12   430.44
eigval :      441.98   442.21   501.93   505.35   508.15   600.70
eigval :      600.88   605.22   605.43   627.29   627.51   636.75
eigval :      636.79   647.02   647.08   650.71   650.80   653.47
eigval :      653.53   657.02   657.14   668.38   669.45   713.34
eigval :      714.06   722.84   723.44   727.13   727.63   741.03
eigval :      741.41   747.42   748.21   759.97   760.75   770.75
eigval :      771.28   788.46   789.22   798.33   798.45   806.01
eigval :      806.16   811.73   812.20   814.83   818.99   819.28
eigval :      827.74   827.91   836.03   836.15   839.03   839.20
eigval :      842.03   842.13   842.68   842.73   852.33   852.35
eigval :      853.44   853.55   924.68   960.32   960.38   972.88
eigval :      972.93   973.97   976.93   985.21   999.38   999.64
eigval :     1008.82  1012.79  1016.24  1017.20  1031.74  1031.95
eigval :     1063.23  1063.49  1065.62  1066.33  1069.22  1069.54
eigval :     1074.66  1075.06  1083.11  1107.50  1121.88  1123.18
eigval :     1136.32  1145.33  1158.58  1164.47  1179.00  1182.44
eigval :     1184.00  1184.79  1203.55  1207.32  1231.16  1233.83
eigval :     1245.23  1256.06  1261.41  1285.30  1285.68  1304.97
eigval :     1306.47  1337.78  1338.75  1346.86  1347.45  1359.90
eigval :     1364.31  1374.94  1375.13  1383.18  1383.21  1387.37
eigval :     1388.35  1389.13  1396.86  1425.56  1460.59  1461.36
eigval :     1477.71  1480.18  1495.00  1495.27  1504.95  1505.29
eigval :     1508.57  1509.11  1513.91  1514.00  1549.84  1549.99
eigval :     1555.16  1555.44  1560.31  1560.57  1585.31  1585.59
eigval :     1594.50  1594.75  2223.55  2233.25  3077.36  3077.52
eigval :     3078.46  3078.55  3085.76  3085.93  3139.84  3139.90
eigval :     3144.60  3144.64  3154.93  3155.22  3156.49  3156.53
eigval :     3160.10  3160.13  3161.46  3161.58  3168.89  3169.14
eigval :     3172.81  3172.92  3351.76  3351.96  3360.66  3360.89

   temp. (K)  partition function   enthalpy   heat capacity  entropy
                                   cal/mol     cal/K/mol   cal/K/mol   J/K/mol
 298.15  VIB  0.127E+20            24248.690    161.482    151.342
         ROT  0.159E+09              888.752      2.981     40.507
         INT  0.201E+28            25137.442    164.463    191.849
         TR   0.167E+29             1481.254      4.968     45.353
         TOT                       26618.6960   169.4313   237.2018   992.4524

       T/K    H(0)-H(T)+PV         H(T)/Eh          T*S/Eh         G(T)/Eh
   ------------------------------------------------------------------------
    298.15    0.424196E-01    0.611520E+00    0.112702E+00    0.498817E+00
   ------------------------------------------------------------------------

         :::::::::::::::::::::::::::::::::::::::::::::::::::::
         ::                  THERMODYNAMIC                  ::
         :::::::::::::::::::::::::::::::::::::::::::::::::::::
         :: total free energy        -130.230070400747 Eh   ::
         ::.................................................::
         :: total energy             -130.728887815873 Eh   ::
         :: zero point energy           0.569100055698 Eh   ::
         :: G(RRHO) w/o ZPVE           -0.070282640572 Eh   ::
         :: G(RRHO) contrib.            0.498817415126 Eh   ::
         :::::::::::::::::::::::::::::::::::::::::::::::::::::

           -------------------------------------------------
          | TOTAL ENERGY             -130.728887815873 Eh   |
          | TOTAL ENTHALPY           -130.117368167965 Eh   |
          | TOTAL FREE ENERGY        -130.230070400747 Eh   |
          | GRADIENT NORM               0.000354976833 Eh/α |
          | HOMO-LUMO GAP               1.103733438307 eV   |
           -------------------------------------------------

 * finished run on 2021/11/19 at 15:12:40.140
