   * xtb version 6.4.1 (bd6e46d) compiled by 'conda@4901f00b25ba' on 2021-06-10
          program call               : /home/jeff/miniconda3/bin/xtb input_structure_1.xyz --gfn 2 --ohess normal --parallel 1 --etemp 300 --chrg 0 --uhf 0 -I det_control.in
          number of atoms            :                    76
          number of electrons        :                   242
          charge                     :                     0
          spin                       :                   0.0

   ID    Z sym.   atoms
    1   30 Zn     1, 41
    2    6 C      2-9, 11-15, 17-21, 23, 24, 37-40, 42-49, 51-55, 57-61, 63,
                  64
    3    7 N      10, 16, 22, 25, 50, 56, 62, 65
    4    1 H      26-36, 66-76

          :  Hamiltonian                  GFN2-xTB          :
 * total energy  :  -128.3501263 Eh     change       -0.1159131E-07 Eh
 * total energy  :  -129.5206887 Eh     change       -0.1170562E+01 Eh
 * total energy  :  -129.6961832 Eh     change       -0.1754945E+00 Eh
 * total energy  :  -129.7911266 Eh     change       -0.9494344E-01 Eh
 * total energy  :  -129.8432256 Eh     change       -0.5209900E-01 Eh
 * total energy  :  -129.8761477 Eh     change       -0.3292205E-01 Eh
 * total energy  :  -129.8992398 Eh     change       -0.2309212E-01 Eh
 * total energy  :  -129.9165660 Eh     change       -0.1732624E-01 Eh
 * total energy  :  -129.9300442 Eh     change       -0.1347817E-01 Eh
 * total energy  :  -129.9409737 Eh     change       -0.1092948E-01 Eh
 * total energy  :  -130.0060283 Eh     change       -0.2613865E-04 Eh
 * total energy  :  -130.0060675 Eh     change       -0.3922770E-04 Eh
 * total energy  :  -130.0060811 Eh     change       -0.1362649E-04 Eh
 * total energy  :  -130.0061002 Eh     change       -0.1907265E-04 Eh
 * total energy  :  -130.0061142 Eh     change       -0.1395242E-04 Eh
 * total energy  :  -130.0061223 Eh     change       -0.8145572E-05 Eh
 * total energy  :  -130.0061225 Eh     change       -0.2088273E-06 Eh
 * total energy  :  -130.0061296 Eh     change       -0.7082405E-05 Eh
 * total energy  :  -130.0061333 Eh     change       -0.3735043E-05 Eh
   *** GEOMETRY OPTIMIZATION CONVERGED AFTER 47 ITERATIONS ***

 final structure:
================
76
 xtb: 6.4.1 (bd6e46d)
Zn        7.93021435721452   -0.05760019280321    0.04853106275989
C        10.42586083340412   -3.51951034086265    0.11669203507955
C        11.38872058553587   -2.56673348785169    0.14968941524831
C        10.71316241701611   -1.30066781192924    0.13477926217531
C        11.36438145502250   -0.05678110219960    0.16088133084387
C        10.71168200797445    1.18678824831614    0.14982343842562
C        11.38615806033318    2.45317830308300    0.18106306919038
C        10.42261141053122    3.40548712437845    0.15577000800114
C         9.16309497924232    2.71859404481133    0.10863815513768
N         9.37082973462583    1.37170921864589    0.10722942634735
C         7.92925253627791    3.34611558219741    0.06697680856227
C         6.69663295200684    2.71694563692163    0.01565901004969
C         5.43140475404926    3.39849466545346   -0.03128585738799
C         4.47514723543734    2.44181283489905   -0.07416895144315
C         5.15536836269961    1.17476405686372   -0.05271187864399
N         6.49836988867591    1.37272270027744    0.00106024594898
C         4.52419709811675   -0.05814869263451   -0.08025775157327
C         5.15610267360930   -1.29083875220028   -0.05720907168205
C         4.47661451262108   -2.55814095257770   -0.08300378008544
C         5.43363024131579   -3.51441225646745   -0.04788887240791
C         6.69859925353606   -2.83239822707701   -0.00172888990034
N         6.49933092285166   -1.48814407252961   -0.00755957445647
C         7.93190861416982   -3.46107352531984    0.03924055374102
C         9.16560962471093   -2.83320415203055    0.08096329976584
N         9.37228281681620   -1.48625709311482    0.09324400461574
H        10.54326674304736   -4.58601820120741    0.11540382615287
H        12.45386387513013   -2.69131473756488    0.18109996488318
H        12.45110708778921    2.57841899044824    0.21700594858267
H        10.53930937265552    4.47205291191784    0.16676913970412
H         7.92983645057395    4.42731816957532    0.07329237730545
H         5.31076926595767    4.46489119470754   -0.03082509618676
H         3.40966092259071    2.56303929850167   -0.11628663033457
H         3.44397173453218   -0.05828451468758   -0.12231963053531
H         3.41105851089984   -2.67966260659418   -0.12231312127652
H         5.31339446379592   -4.58084047706320   -0.05260680006875
H         7.93286094775052   -4.54230187986855    0.03679603715136
C        12.76271844926505   -0.05415587787781    0.19322365951159
C        13.98057107303854   -0.04365329622838    0.21404832394223
C        15.32271602962171   -0.03317676981715    0.21814614949107
C        16.54065419005042   -0.01525276161362    0.20963378544919
Zn       21.36660789715779    0.05998389555842   -0.05310236273186
C        18.82628412078191    3.48241454481655    0.17028509102270
C        17.87838137923121    2.51505575742548    0.21045579989254
C        18.57091519072680    1.25972061914203    0.14498625322084
C        17.93848218142726    0.00598531864788    0.16635898149178
C        18.60965753703062   -1.22730759003226    0.13678990172693
C        17.95636551075402   -2.50376432158803    0.19347077170228
C        18.93369228073021   -3.44109598617481    0.14461199092962
C        20.18000155300015   -2.73495723506027    0.05335191474740
N        19.95138202142985   -1.39147230141792    0.05476166129861
C        21.42107087635296   -3.34305947452110   -0.03675015127302
C        22.63958556855694   -2.69467314172332   -0.14855601451242
C        23.91119548039569   -3.35641120921216   -0.26245093405055
C        24.84852394832802   -2.38496433192121   -0.35805620638321
C        24.15078566283309   -1.12866690625264   -0.29940325636132
N        22.81589813649521   -1.34746233697169   -0.17402267648255
C        24.76077202512868    0.11396472170076   -0.35544819802392
C        24.11293268340087    1.33655369255428   -0.28610077487934
C        24.77165589241405    2.61428493449656   -0.33090475451917
C        23.80456878184280    3.55530366019769   -0.22711128459935
C        22.55393884653729    2.85357559053556   -0.12234668825435
N        22.77169840116061    1.51278054591775   -0.16030515196237
C        21.31563645264594    3.46298638983752   -0.00748702485207
C        20.09399924535934    2.81586586499953    0.07520311853851
N        19.90701753798337    1.46600148226523    0.06567675673948
H        18.69410761102466    4.54681476112977    0.19951916264258
H        16.81315956797967    2.62257586319611    0.27962561512960
H        16.89512292889128   -2.64512127085551    0.26337940306349
H        18.83415972303791   -4.50924213569318    0.16526902572340
H        21.43809066284931   -4.42410830797012   -0.02717918788998
H        24.04789506136524   -4.42082842644101   -0.26817312857870
H        25.91189299246458   -2.48943769740884   -0.45809976418169
H        25.83692467701076    0.13087838605229   -0.45683170523680
H        25.83147697233992    2.75238723319668   -0.42794655202409
H        23.90881726349209    4.62339480163179   -0.22206264060693
H        21.29917688334890    4.54388941098471    0.01162657745504

          :  Hamiltonian                  GFN2-xTB          :
         :: gradient norm              0.000589679095 Eh/a0 ::
         :: HOMO-LUMO gap              1.221482590210 eV    ::
         :: SCC energy              -132.366523924475 Eh    ::
         :: -> dispersion             -0.117027593990 Eh    ::
         :: repulsion energy           2.361668240120 Eh    ::

    * Orbital Energies and Occupations

         #    Occupation            Energy/Eh            Energy/eV
      -------------------------------------------------------------
         1        2.0000           -0.6662286             -18.1290
       ...           ...                  ...                  ...
       109        2.0000           -0.4010622             -10.9135
       110        2.0000           -0.4010606             -10.9134
       111        2.0000           -0.4005970             -10.9008
       112        2.0000           -0.4004876             -10.8978
       113        2.0000           -0.4004825             -10.8977
       114        2.0000           -0.3958560             -10.7718
       115        2.0000           -0.3886892             -10.5768
       116        2.0000           -0.3855826             -10.4922
       117        2.0000           -0.3853391             -10.4856
       118        2.0000           -0.3684739             -10.0267
       119        2.0000           -0.3684616             -10.0264
       120        2.0000           -0.3679965             -10.0137
       121        2.0000           -0.3532530              -9.6125 (HOMO)
       122                         -0.3083643              -8.3910 (LUMO)
       123                         -0.2977883              -8.1032
       124                         -0.2977821              -8.1031
       125                         -0.2936343              -7.9902
       126                         -0.2637181              -7.1761
       127                         -0.2550304              -6.9397
       128                         -0.2250569              -6.1241
       129                         -0.2048158              -5.5733
       130                         -0.1888023              -5.1376
       131                         -0.1887928              -5.1373
       132                         -0.1696415              -4.6162
       ...                                ...                  ...
       238                          1.6332577              44.4432
      -------------------------------------------------------------
                  HL-Gap            0.0448887 Eh            1.2215 eV

     #   Z          covCN         q      C6AA      α(0)
     1  30 Zn       3.042     0.245   122.299    21.603
     2   6 C        3.020    -0.052    29.269     8.874
     3   6 C        3.018    -0.050    29.226     8.868
     4   6 C        3.166     0.077    25.946     8.324
     5   6 C        2.953     0.017    27.628     8.621
     6   6 C        3.166     0.077    25.945     8.324
     7   6 C        3.018    -0.050    29.228     8.868
     8   6 C        3.020    -0.052    29.269     8.874
     9   6 C        3.149     0.076    26.053     8.349
    10   7 N        2.632    -0.177    24.837     7.402
    11   6 C        2.901    -0.050    29.238     8.866
    12   6 C        3.145     0.077    26.040     8.349
    13   6 C        3.017    -0.051    29.246     8.871
    14   6 C        3.018    -0.051    29.249     8.871
    15   6 C        3.145     0.077    26.030     8.347
    16   7 N        2.635    -0.175    24.794     7.395
    17   6 C        2.901    -0.052    29.283     8.873
    18   6 C        3.145     0.077    26.030     8.347
    19   6 C        3.018    -0.051    29.250     8.871
    20   6 C        3.017    -0.051    29.245     8.871
    21   6 C        3.145     0.077    26.041     8.349
    22   7 N        2.635    -0.175    24.794     7.395
    23   6 C        2.901    -0.050    29.238     8.866
    24   6 C        3.149     0.076    26.053     8.349
    25   7 N        2.632    -0.177    24.839     7.402
    26   1 H        0.926     0.033     2.537     2.491
    27   1 H        0.926     0.035     2.510     2.478
    28   1 H        0.926     0.035     2.511     2.478
    29   1 H        0.926     0.034     2.537     2.491
    30   1 H        0.925     0.049     2.332     2.388
    31   1 H        0.926     0.034     2.529     2.487
    32   1 H        0.926     0.034     2.530     2.487
    33   1 H        0.926     0.048     2.341     2.393
    34   1 H        0.926     0.034     2.530     2.487
    35   1 H        0.926     0.034     2.529     2.487
    36   1 H        0.925     0.049     2.332     2.388
    37   6 C        1.996    -0.021    31.601     9.078
    38   6 C        1.963    -0.010    31.335     9.040
    39   6 C        1.963    -0.010    31.335     9.040
    40   6 C        1.996    -0.021    31.601     9.078
    41  30 Zn       3.042     0.245   122.298    21.603
    42   6 C        3.020    -0.052    29.268     8.874
    43   6 C        3.018    -0.050    29.227     8.868
    44   6 C        3.166     0.077    25.945     8.324
    45   6 C        2.953     0.017    27.628     8.621
    46   6 C        3.166     0.077    25.945     8.324
    47   6 C        3.018    -0.050    29.228     8.868
    48   6 C        3.020    -0.052    29.269     8.874
    49   6 C        3.149     0.076    26.052     8.349
    50   7 N        2.632    -0.177    24.839     7.402
    51   6 C        2.901    -0.050    29.237     8.866
    52   6 C        3.145     0.077    26.042     8.349
    53   6 C        3.017    -0.051    29.246     8.871
    54   6 C        3.018    -0.051    29.249     8.871
    55   6 C        3.145     0.077    26.030     8.347
    56   7 N        2.635    -0.175    24.794     7.395
    57   6 C        2.901    -0.052    29.284     8.873
    58   6 C        3.145     0.077    26.030     8.347
    59   6 C        3.018    -0.051    29.249     8.871
    60   6 C        3.017    -0.051    29.246     8.871
    61   6 C        3.145     0.077    26.040     8.349
    62   7 N        2.635    -0.175    24.795     7.395
    63   6 C        2.901    -0.050    29.238     8.866
    64   6 C        3.149     0.076    26.053     8.349
    65   7 N        2.632    -0.177    24.838     7.402
    66   1 H        0.926     0.034     2.537     2.491
    67   1 H        0.926     0.035     2.511     2.478
    68   1 H        0.926     0.035     2.510     2.478
    69   1 H        0.926     0.033     2.537     2.491
    70   1 H        0.925     0.049     2.332     2.388
    71   1 H        0.926     0.034     2.529     2.487
    72   1 H        0.926     0.034     2.530     2.487
    73   1 H        0.926     0.048     2.341     2.393
    74   1 H        0.926     0.034     2.530     2.487
    75   1 H        0.926     0.034     2.529     2.487
    76   1 H        0.926     0.049     2.332     2.388

Wiberg/Mayer (AO) data.
largest (>0.10) Wiberg bond orders for each atom

     #   Z sym  total        # sym  WBO       # sym  WBO       # sym  WBO
 ---------------------------------------------------------------------------
     1  30 Zn   2.081 --    22 N    0.492    16 N    0.491    10 N    0.489
                            25 N    0.489
     2   6 C    3.953 --     3 C    1.650    24 C    1.171    26 H    0.972
     3   6 C    3.957 --     2 C    1.650     4 C    1.179    27 H    0.971
     4   6 C    3.912 --    25 N    1.286     5 C    1.253     3 C    1.179
     5   6 C    3.941 --     4 C    1.253     6 C    1.252    37 C    1.184
     6   6 C    3.912 --    10 N    1.286     5 C    1.252     7 C    1.179
     7   6 C    3.957 --     8 C    1.650     6 C    1.179    28 H    0.971
     8   6 C    3.953 --     7 C    1.650     9 C    1.171    29 H    0.972
     9   6 C    3.924 --    11 C    1.357    10 N    1.247     8 C    1.171
    10   7 N    3.467 --     6 C    1.286     9 C    1.247     1 Zn   0.489
    11   6 C    3.931 --     9 C    1.357    12 C    1.354    30 H    0.964
    12   6 C    3.930 --    11 C    1.354    16 N    1.261    13 C    1.163
    13   6 C    3.957 --    14 C    1.666    12 C    1.163    31 H    0.972
    14   6 C    3.955 --    13 C    1.666    15 C    1.162    32 H    0.972
    15   6 C    3.932 --    17 C    1.354    16 N    1.263    14 C    1.162
    16   7 N    3.464 --    15 C    1.263    12 C    1.261     1 Zn   0.491
    17   6 C    3.926 --    15 C    1.354    18 C    1.354    33 H    0.964
    18   6 C    3.932 --    17 C    1.354    22 N    1.263    19 C    1.162
    19   6 C    3.955 --    20 C    1.666    18 C    1.162    34 H    0.972
    20   6 C    3.957 --    19 C    1.666    21 C    1.163    35 H    0.972
    21   6 C    3.930 --    23 C    1.354    22 N    1.261    20 C    1.163
    22   7 N    3.464 --    18 C    1.263    21 C    1.261     1 Zn   0.492
    23   6 C    3.931 --    24 C    1.357    21 C    1.354    36 H    0.964
    24   6 C    3.924 --    23 C    1.357    25 N    1.247     2 C    1.171
    25   7 N    3.467 --     4 C    1.286    24 C    1.247     1 Zn   0.489
    26   1 H    0.998 --     2 C    0.972
    27   1 H    0.998 --     3 C    0.971
    28   1 H    0.998 --     7 C    0.971
    29   1 H    0.998 --     8 C    0.972
    30   1 H    0.996 --    11 C    0.964
    31   1 H    0.998 --    13 C    0.972
    32   1 H    0.998 --    14 C    0.972
    33   1 H    0.996 --    17 C    0.964
    34   1 H    0.998 --    19 C    0.972
    35   1 H    0.998 --    20 C    0.972
    36   1 H    0.996 --    23 C    0.964
    37   6 C    3.920 --    38 C    2.472     5 C    1.184    40 C    0.203
    38   6 C    3.928 --    37 C    2.472    39 C    1.303
    39   6 C    3.928 --    40 C    2.472    38 C    1.303
    40   6 C    3.920 --    39 C    2.472    45 C    1.184    37 C    0.203
    41  30 Zn   2.081 --    56 N    0.491    62 N    0.491    50 N    0.489
                            65 N    0.489
    42   6 C    3.953 --    43 C    1.650    64 C    1.171    66 H    0.972
    43   6 C    3.957 --    42 C    1.650    44 C    1.179    67 H    0.971
    44   6 C    3.912 --    65 N    1.286    45 C    1.252    43 C    1.179
    45   6 C    3.941 --    44 C    1.252    46 C    1.252    40 C    1.184
    46   6 C    3.912 --    50 N    1.286    45 C    1.252    47 C    1.179
    47   6 C    3.957 --    48 C    1.650    46 C    1.179    68 H    0.971
    48   6 C    3.953 --    47 C    1.650    49 C    1.171    69 H    0.972
    49   6 C    3.924 --    51 C    1.357    50 N    1.247    48 C    1.171
    50   7 N    3.467 --    46 C    1.286    49 C    1.247    41 Zn   0.489
    51   6 C    3.931 --    49 C    1.357    52 C    1.354    70 H    0.964
    52   6 C    3.930 --    51 C    1.354    56 N    1.261    53 C    1.163
    53   6 C    3.957 --    54 C    1.666    52 C    1.163    71 H    0.972
    54   6 C    3.955 --    53 C    1.666    55 C    1.162    72 H    0.972
    55   6 C    3.932 --    57 C    1.354    56 N    1.263    54 C    1.162
    56   7 N    3.464 --    55 C    1.263    52 C    1.261    41 Zn   0.491
    57   6 C    3.926 --    58 C    1.354    55 C    1.354    73 H    0.964
    58   6 C    3.932 --    57 C    1.354    62 N    1.263    59 C    1.162
    59   6 C    3.955 --    60 C    1.666    58 C    1.162    74 H    0.972
    60   6 C    3.957 --    59 C    1.666    61 C    1.163    75 H    0.972
    61   6 C    3.930 --    63 C    1.354    62 N    1.261    60 C    1.163
    62   7 N    3.464 --    58 C    1.263    61 C    1.261    41 Zn   0.491
    63   6 C    3.931 --    64 C    1.357    61 C    1.354    76 H    0.964
    64   6 C    3.924 --    63 C    1.357    65 N    1.247    42 C    1.171
    65   7 N    3.467 --    44 C    1.286    64 C    1.247    41 Zn   0.489
    66   1 H    0.998 --    42 C    0.972
    67   1 H    0.998 --    43 C    0.971
    68   1 H    0.998 --    47 C    0.971
    69   1 H    0.998 --    48 C    0.972
    70   1 H    0.996 --    51 C    0.964
    71   1 H    0.998 --    53 C    0.972
    72   1 H    0.998 --    54 C    0.972
    73   1 H    0.996 --    57 C    0.964
    74   1 H    0.998 --    59 C    0.972
    75   1 H    0.998 --    60 C    0.972
    76   1 H    0.996 --    63 C    0.964
 ---------------------------------------------------------------------------

molecular dipole:
                 x           y           z       tot (Debye)
 q only:       -0.001       0.004      -0.025
   full:       -0.001       0.005      -0.041       0.106

 projected vibrational frequencies (cm⁻¹)
eigval :       -0.00    -0.00    -0.00    -0.00     0.00     0.00
eigval :        3.93     8.07     8.62    19.65    34.47    41.12
eigval :       41.59    46.24    66.53    72.78    75.97    76.83
eigval :      102.02   127.36   127.58   128.75   149.06   150.71
eigval :      166.33   168.16   178.32   180.89   181.06   195.56
eigval :      197.10   197.19   198.45   198.56   198.61   202.59
eigval :      203.15   203.20   215.02   244.67   262.84   263.09
eigval :      267.11   305.96   312.68   317.80   320.93   337.24
eigval :      338.43   354.40   358.97   361.70   361.94   368.59
eigval :      371.95   376.35   381.69   384.75   385.39   387.53
eigval :      397.55   397.66   426.37   426.84   431.60   431.89
eigval :      455.55   456.04   508.24   511.59   522.80   624.00
eigval :      624.38   628.01   628.12   631.32   631.34   646.09
eigval :      646.22   648.25   648.40   660.81   660.86   663.39
eigval :      663.44   673.89   674.88   720.34   721.71   731.11
eigval :      731.11   759.20   760.47   760.72   764.62   776.04
eigval :      776.16   779.36   780.89   797.60   799.08   799.60
eigval :      799.72   807.41   807.66   812.61   813.06   819.28
eigval :      820.00   820.32   829.45   829.73   836.64   836.98
eigval :      839.96   840.31   843.35   843.78   846.18   846.70
eigval :      847.22   847.46   848.39   848.56   933.81   988.08
eigval :      990.84  1002.06  1003.58  1003.68  1023.34  1025.98
eigval :     1026.03  1035.39  1036.36  1036.43  1037.51  1038.37
eigval :     1046.03  1046.04  1067.65  1067.80  1068.61  1069.70
eigval :     1070.29  1071.32  1072.66  1073.63  1131.91  1150.95
eigval :     1155.49  1155.54  1167.94  1172.04  1176.86  1176.90
eigval :     1225.70  1225.75  1229.34  1240.32  1240.34  1285.83
eigval :     1286.11  1300.57  1301.15  1301.23  1303.48  1318.21
eigval :     1318.24  1333.00  1334.71  1342.87  1342.96  1347.90
eigval :     1349.20  1364.20  1366.19  1367.24  1367.31  1401.43
eigval :     1449.54  1449.59  1450.13  1460.15  1475.75  1476.00
eigval :     1497.17  1499.45  1507.99  1508.08  1514.22  1514.54
eigval :     1521.50  1522.30  1531.37  1531.47  1549.31  1550.21
eigval :     1555.35  1555.41  1564.61  1565.46  1599.05  1599.12
eigval :     2229.81  2235.14  3077.38  3077.57  3077.96  3078.13
eigval :     3079.21  3079.30  3146.14  3146.31  3146.50  3146.68
eigval :     3150.83  3151.01  3151.19  3151.41  3159.81  3159.98
eigval :     3160.61  3161.13  3165.32  3165.71  3165.96  3166.28

   temp. (K)  partition function   enthalpy   heat capacity  entropy
                                   cal/mol     cal/K/mol   cal/K/mol   J/K/mol
 298.15  VIB  0.256E+20            25207.625    165.645    156.482
         ROT  0.184E+09              888.752      2.981     40.798
         INT  0.471E+28            26096.378    168.626    197.280
         TR   0.216E+29             1481.254      4.968     45.871
         TOT                       27577.6315   173.5938   243.1515  1017.3459

       T/K    H(0)-H(T)+PV         H(T)/Eh          T*S/Eh         G(T)/Eh
   ------------------------------------------------------------------------
    298.15    0.439478E-01    0.571993E+00    0.115529E+00    0.456464E+00
   ------------------------------------------------------------------------

         :::::::::::::::::::::::::::::::::::::::::::::::::::::
         ::                  THERMODYNAMIC                  ::
         :::::::::::::::::::::::::::::::::::::::::::::::::::::
         :: total free energy        -129.549669597479 Eh   ::
         ::.................................................::
         :: total energy             -130.006133336953 Eh   ::
         :: zero point energy           0.528045115268 Eh   ::
         :: G(RRHO) w/o ZPVE           -0.071581375794 Eh   ::
         :: G(RRHO) contrib.            0.456463739475 Eh   ::
         :::::::::::::::::::::::::::::::::::::::::::::::::::::

           -------------------------------------------------
          | TOTAL ENERGY             -130.006133336953 Eh   |
          | TOTAL ENTHALPY           -129.434140468566 Eh   |
          | TOTAL FREE ENERGY        -129.549669597479 Eh   |
          | GRADIENT NORM               0.000589672694 Eh/α |
          | HOMO-LUMO GAP               1.221482847796 eV   |
           -------------------------------------------------

 * finished run on 2021/11/18 at 18:35:52.306
