   * xtb version 6.4.1 (bd6e46d) compiled by 'conda@4901f00b25ba' on 2021-06-10
          program call               : /home/jeff/miniconda3/bin/xtb input_structure_1.xyz --gfn 2 --ohess normal --parallel 1 --etemp 300 --chrg 0 --uhf 0 -I det_control.in
          number of atoms            :                   111
          number of electrons        :                   354
          charge                     :                     0
          spin                       :                   0.0

   ID    Z sym.   atoms
    1   30 Zn     1, 37, 77
    2    6 C      2-9, 11-15, 17-21, 23, 24, 38-45, 47-51, 53-57, 59, 60,
                  73-76, 78-85, 87-91, 93-97, 99, 100
    3    7 N      10, 16, 22, 25, 46, 52, 58, 61, 86, 92, 98, 101
    4    1 H      26-36, 62-72, 102-111

          :  Hamiltonian                  GFN2-xTB          :
 * total energy  :  -189.3587024 Eh     change       -0.3917253E-07 Eh
 * total energy  :  -189.5417584 Eh     change       -0.1830560E+00 Eh
 * total energy  :  -189.6485668 Eh     change       -0.1068084E+00 Eh
 * total energy  :  -189.7061464 Eh     change       -0.5757956E-01 Eh
 * total energy  :  -189.7545462 Eh     change       -0.4839979E-01 Eh
 * total energy  :  -189.8042045 Eh     change       -0.4965830E-01 Eh
 * total energy  :  -189.8576901 Eh     change       -0.5348560E-01 Eh
 * total energy  :  -189.9088508 Eh     change       -0.5116070E-01 Eh
 * total energy  :  -189.9457313 Eh     change       -0.3688049E-01 Eh
 * total energy  :  -189.9726919 Eh     change       -0.2696066E-01 Eh
 * total energy  :  -190.2917692 Eh     change       -0.6987216E-05 Eh
 * total energy  :  -190.2917752 Eh     change       -0.5958631E-05 Eh
 * total energy  :  -190.2917827 Eh     change       -0.7503584E-05 Eh
 * total energy  :  -190.2917915 Eh     change       -0.8871744E-05 Eh
 * total energy  :  -190.2917987 Eh     change       -0.7194267E-05 Eh
 * total energy  :  -190.2918046 Eh     change       -0.5816771E-05 Eh
 * total energy  :  -190.2918104 Eh     change       -0.5838873E-05 Eh
 * total energy  :  -190.2918159 Eh     change       -0.5512500E-05 Eh
 * total energy  :  -190.2918204 Eh     change       -0.4466445E-05 Eh
   *** GEOMETRY OPTIMIZATION CONVERGED AFTER 114 ITERATIONS ***

 final structure:
================
111
 xtb: 6.4.1 (bd6e46d)
Zn       17.03259284349771    0.00022788385531   -0.00136905587745
C        19.52389193544025   -3.09858653385000    1.54867637300445
C        20.48826793190446   -2.24312947409014    1.13181850338313
C        19.81542864166649   -1.12016669147659    0.54349501514071
C        20.46843969593165   -0.01182472289234   -0.01736789412146
C        19.81715396996780    1.10177016523267   -0.56991740637607
C        20.49179547232958    2.22271218091912   -1.16023950781820
C        19.52945878169335    3.08780783169764   -1.56139812891736
C        18.26907219297818    2.49011924847084   -1.22261015470331
N        18.47554311372748    1.28266196664438   -0.62605799720782
C        17.03585388158467    3.06757992971295   -1.47531800310209
C        15.80139263750831    2.50974208764708   -1.18815705528798
C        14.53623469555134    3.13126896208501   -1.47199092447455
C        13.57778143057828    2.26956953874081   -1.05929897318995
C        14.25666628137047    1.12112854306032   -0.52181299293788
N        15.60094755251093    1.29571780811169   -0.61137643915033
C        13.62354687594588    0.00659193635153    0.00378850548253
C        14.25475300022401   -1.10834757968060    0.53073491300224
C        13.57327982157097   -2.25143761715172    1.07616173429200
C        14.52975244314486   -3.11349064410962    1.49263494691156
C        15.79641170428427   -2.49837244938089    1.20139953941199
N        15.59871633006809   -1.28704443027886    0.61804227558488
C        17.02935100533880   -3.06124326190720    1.48541443813396
C        18.26440535281576   -2.49371766719273    1.21952632309780
N        18.47332509536349   -1.29103165770355    0.61435803664396
H        19.63985709965882   -4.04735934309028    2.03625595910017
H        21.55271040342465   -2.34132757064989    1.22015381579403
H        21.55582808218231    2.31322832097689   -1.26059759589828
H        19.64717521399129    4.03863560792732   -2.04454789525834
H        17.03857970374420    4.04102709843693   -1.94584759397156
H        14.41688451120787    4.09622734271894   -1.92624467862273
H        12.51169403780487    2.38320282774796   -1.10646774816119
H        12.54253776962176    0.00764442946613    0.00429792365373
H        12.50690926812126   -2.36116628468708    1.12630891784438
H        14.40832110098910   -4.07486590768934    1.95384420313861
H        17.02890796864349   -4.03162681695893    1.96228687487370
Zn       38.82018442547837    0.04403808739329    0.00174774714077
C        36.31858567672900    3.06483477988560    1.68220560037785
C        35.35701225181220    2.22379425006569    1.23105748328569
C        36.03330775939534    1.12861762006012    0.59614771759121
C        35.38366546088083    0.04233636174646   -0.01008246410149
C        36.03888217912659   -1.04473809662415   -0.60907822837097
C        35.36821399154937   -2.14255418723032   -1.24543776181072
C        36.33359353292622   -2.98613140579962   -1.68343501489839
C        37.59185278310127   -2.39795453783318   -1.32110060721524
N        37.38112337299283   -1.21758490507828   -0.67398145942290
C        38.82720678851628   -2.95875603115990   -1.59960318180632
C        40.05971912369456   -2.40782088015174   -1.29161824995517
C        41.32698399878208   -3.01069267568506   -1.60457539398009
C        42.28248796044746   -2.16260903418044   -1.15812402868905
C        41.59967324426054   -1.04122965709797   -0.57095293000944
N        40.25599967561003   -1.21828161094100   -0.66446998547495
C        42.22924373376595    0.05313079632688   -0.00058055533964
C        41.59437595885991    1.14238790734817    0.57356654355056
C        42.27189220206203    2.26547981780466    1.16366594638139
C        41.31245039016837    3.10501652707289    1.61768956811454
C        40.04796767954277    2.49622168650735    1.30458868256859
N        40.24985135128513    1.31085914078976    0.67143585795807
C        38.81295452984573    3.04058071562158    1.61436727132197
C        37.57997685435021    2.47887745333937    1.32711201759938
N        37.37494335097985    1.30147234693094    0.67294403359138
H        36.19966421311080    3.99224251339066    2.20860717990329
H        34.29230270889632    2.31422788327052    1.32416326527385
H        34.30449212076194   -2.23308434141035   -1.34863864128838
H        36.21926707571866   -3.91616721440000   -2.20622669084777
H        38.82798211796680   -3.91157528204392   -2.11063555701192
H        41.44958631209226   -3.95487269282262   -2.09980334233573
H        43.34895070288019   -2.26893699218211   -1.21296057330455
H        43.31024355625010    0.05683339601013   -0.00260264682703
H        43.33785637322833    2.37834773766784    1.21540491010135
H        41.43065791484779    4.04736739720094    2.11743157785571
H        38.80963569842699    3.99029294872539    2.13116195602634
C        21.87197054579578   -0.01506717721778   -0.02295514311417
C        23.08486149482261   -0.01689537382205   -0.02447929074791
C        32.76719801948003    0.03805655648369   -0.02100639061466
C        33.98010290534830    0.04110866233154   -0.01578496059281
Zn       27.92574163065987    0.01025339582036   -0.02905174576001
C        25.45296600770708   -3.46235805727459   -0.18615395226200
C        24.48322090021545   -2.51624798622506   -0.16422537223087
C        25.14862006813236   -1.24738831787387   -0.08445045740475
C        24.48800383298643   -0.01053629918146   -0.02653921443971
C        25.13442764702440    1.23396264855583    0.03103554426275
C        24.45413214775677    2.49455544098371    0.11552717518980
C        25.41238736475815    3.45225851695968    0.13596844696564
C        26.67503762069358    2.77391959447722    0.07106848129694
N        26.47509882997084    1.42717110209305    0.01418554616778
C        27.90570428975392    3.40772988354140    0.06129138913376
C        29.14400183447296    2.79032359631352    0.01823858699563
C        30.39840965972210    3.48639880010030   -0.00907609615868
C        31.36823440467346    2.54059476333490   -0.03779561922268
C        30.70317691872688    1.26918150825016   -0.02092427412765
N        29.36022670186120    1.44505714439532    0.00377836723182
C        31.36403199601345    0.03103048750493   -0.02485830658165
C        30.71742188355363   -1.21475391999949   -0.03109813721650
C        31.39743434693234   -2.47814423149323   -0.01054770959151
C        30.43915949632364   -3.43553852079557   -0.04177022044645
C        29.17662684226925   -2.75458233621570   -0.07347295580794
N        29.37674385408087   -1.40674046539524   -0.06012749143208
C        27.94602226243066   -3.38721791379229   -0.11673367289313
C        26.70756855798716   -2.76870829000588   -0.12601013073472
N        26.49154718840717   -1.42439416791556   -0.07099351151145
H        25.34347280969329   -4.52834559469727   -0.24079109707688
H        23.41966498303086   -2.64732258718731   -0.21017112451517
H        23.38937291050277    2.61278787160548    0.16636648407408
H        25.29006541911837    4.51667879770548    0.19329190114355
H        27.89903547713117    4.48856710737335    0.09047207713379
H        30.50755746618852    4.55379656117671   -0.00960642520068
H        32.43160472542419    2.67407948827919   -0.08041089046835
H        32.46205319279989   -2.59896183970264    0.03667150667678
H        30.56132413272271   -4.50152653966039   -0.03942253619557
H        27.95296471466067   -4.46811518847256   -0.14444807942275

          :  Hamiltonian                  GFN2-xTB          :
         :: gradient norm              0.000328427136 Eh/a0 ::
         :: HOMO-LUMO gap              1.071401361549 eV    ::
         :: SCC energy              -193.675926117342 Eh    ::
         :: -> dispersion             -0.182239615901 Eh    ::
         :: repulsion energy           3.386769562963 Eh    ::

    * Orbital Energies and Occupations

         #    Occupation            Energy/Eh            Energy/eV
      -------------------------------------------------------------
         1        2.0000           -0.6669959             -18.1499
       ...           ...                  ...                  ...
       165        2.0000           -0.4005871             -10.9005
       166        2.0000           -0.4001543             -10.8888
       167        2.0000           -0.3999569             -10.8834
       168        2.0000           -0.3967240             -10.7954
       169        2.0000           -0.3868787             -10.5275
       170        2.0000           -0.3854884             -10.4897
       171        2.0000           -0.3854843             -10.4896
       172        2.0000           -0.3711441             -10.0993
       173        2.0000           -0.3692782             -10.0486
       174        2.0000           -0.3684443             -10.0259
       175        2.0000           -0.3684408             -10.0258
       176        2.0000           -0.3614546              -9.8357
       177        2.0000           -0.3509602              -9.5501 (HOMO)
       178                         -0.3115870              -8.4787 (LUMO)
       179                         -0.3001513              -8.1675
       180                         -0.2985236              -8.1232
       181                         -0.2977725              -8.1028
       182                         -0.2977673              -8.1027
       183                         -0.2896267              -7.8811
       184                         -0.2653189              -7.2197
       185                         -0.2570603              -6.9950
       186                         -0.2525068              -6.8711
       187                         -0.1897770              -5.1641
       188                         -0.1888408              -5.1386
       ...                                ...                  ...
       348                          1.4081985              38.3190
      -------------------------------------------------------------
                  HL-Gap            0.0393733 Eh            1.0714 eV

     #   Z          covCN         q      C6AA      α(0)
     1  30 Zn       3.042     0.244   122.302    21.603
     2   6 C        3.020    -0.052    29.270     8.875
     3   6 C        3.018    -0.051    29.231     8.869
     4   6 C        3.164     0.077    25.966     8.328
     5   6 C        2.953     0.018    27.601     8.617
     6   6 C        3.164     0.077    25.968     8.329
     7   6 C        3.018    -0.051    29.233     8.869
     8   6 C        3.020    -0.052    29.271     8.875
     9   6 C        3.148     0.076    26.055     8.350
    10   7 N        2.632    -0.176    24.825     7.400
    11   6 C        2.901    -0.050    29.242     8.866
    12   6 C        3.145     0.077    26.041     8.349
    13   6 C        3.017    -0.051    29.246     8.871
    14   6 C        3.018    -0.051    29.249     8.871
    15   6 C        3.145     0.077    26.030     8.347
    16   7 N        2.634    -0.175    24.793     7.395
    17   6 C        2.901    -0.052    29.285     8.873
    18   6 C        3.145     0.077    26.030     8.347
    19   6 C        3.018    -0.051    29.250     8.871
    20   6 C        3.017    -0.051    29.246     8.871
    21   6 C        3.145     0.077    26.041     8.349
    22   7 N        2.635    -0.175    24.789     7.395
    23   6 C        2.901    -0.050    29.242     8.866
    24   6 C        3.148     0.076    26.054     8.350
    25   7 N        2.632    -0.176    24.829     7.400
    26   1 H        0.926     0.034     2.534     2.489
    27   1 H        0.926     0.035     2.518     2.482
    28   1 H        0.926     0.035     2.516     2.480
    29   1 H        0.926     0.034     2.534     2.489
    30   1 H        0.926     0.049     2.331     2.388
    31   1 H        0.926     0.034     2.529     2.487
    32   1 H        0.926     0.034     2.530     2.487
    33   1 H        0.926     0.048     2.340     2.392
    34   1 H        0.926     0.034     2.529     2.487
    35   1 H        0.926     0.034     2.528     2.487
    36   1 H        0.925     0.049     2.332     2.388
    37  30 Zn       3.042     0.244   122.302    21.603
    38   6 C        3.020    -0.052    29.270     8.875
    39   6 C        3.018    -0.051    29.231     8.869
    40   6 C        3.163     0.077    25.968     8.329
    41   6 C        2.953     0.018    27.600     8.617
    42   6 C        3.164     0.077    25.968     8.329
    43   6 C        3.018    -0.051    29.233     8.869
    44   6 C        3.020    -0.052    29.271     8.875
    45   6 C        3.148     0.076    26.054     8.350
    46   7 N        2.632    -0.176    24.826     7.400
    47   6 C        2.901    -0.050    29.241     8.866
    48   6 C        3.145     0.077    26.041     8.349
    49   6 C        3.017    -0.051    29.246     8.871
    50   6 C        3.018    -0.051    29.250     8.871
    51   6 C        3.145     0.077    26.030     8.347
    52   7 N        2.634    -0.175    24.792     7.395
    53   6 C        2.901    -0.052    29.285     8.873
    54   6 C        3.145     0.077    26.030     8.347
    55   6 C        3.018    -0.051    29.249     8.871
    56   6 C        3.017    -0.051    29.246     8.871
    57   6 C        3.145     0.077    26.041     8.349
    58   7 N        2.635    -0.175    24.790     7.395
    59   6 C        2.901    -0.050    29.242     8.866
    60   6 C        3.148     0.076    26.054     8.350
    61   7 N        2.632    -0.176    24.828     7.400
    62   1 H        0.926     0.034     2.534     2.489
    63   1 H        0.926     0.035     2.518     2.481
    64   1 H        0.926     0.035     2.517     2.481
    65   1 H        0.926     0.034     2.534     2.489
    66   1 H        0.926     0.049     2.331     2.388
    67   1 H        0.926     0.034     2.528     2.487
    68   1 H        0.926     0.034     2.529     2.487
    69   1 H        0.926     0.048     2.340     2.392
    70   1 H        0.926     0.034     2.529     2.487
    71   1 H        0.926     0.034     2.528     2.487
    72   1 H        0.925     0.049     2.332     2.388
    73   6 C        1.994    -0.029    31.808     9.108
    74   6 C        1.994    -0.029    31.822     9.110
    75   6 C        1.994    -0.029    31.822     9.110
    76   6 C        1.994    -0.029    31.808     9.108
    77  30 Zn       3.039     0.246   122.282    21.601
    78   6 C        3.020    -0.052    29.266     8.874
    79   6 C        3.019    -0.050    29.229     8.868
    80   6 C        3.165     0.077    25.958     8.327
    81   6 C        2.953     0.018    27.598     8.617
    82   6 C        3.165     0.077    25.958     8.326
    83   6 C        3.019    -0.051    29.234     8.869
    84   6 C        3.020    -0.052    29.266     8.874
    85   6 C        3.150     0.075    26.058     8.350
    86   7 N        2.633    -0.176    24.826     7.400
    87   6 C        2.901    -0.048    29.197     8.860
    88   6 C        3.150     0.075    26.058     8.350
    89   6 C        3.020    -0.052    29.266     8.874
    90   6 C        3.019    -0.051    29.230     8.869
    91   6 C        3.165     0.077    25.958     8.327
    92   7 N        2.632    -0.176    24.829     7.401
    93   6 C        2.953     0.018    27.598     8.616
    94   6 C        3.165     0.077    25.959     8.327
    95   6 C        3.019    -0.051    29.233     8.869
    96   6 C        3.020    -0.052    29.267     8.874
    97   6 C        3.150     0.075    26.058     8.350
    98   7 N        2.633    -0.176    24.826     7.400
    99   6 C        2.901    -0.048    29.197     8.860
   100   6 C        3.150     0.075    26.058     8.350
   101   7 N        2.632    -0.177    24.830     7.401
   102   1 H        0.926     0.034     2.533     2.489
   103   1 H        0.926     0.035     2.517     2.481
   104   1 H        0.926     0.035     2.514     2.479
   105   1 H        0.926     0.034     2.532     2.488
   106   1 H        0.925     0.050     2.323     2.384
   107   1 H        0.926     0.034     2.533     2.489
   108   1 H        0.926     0.035     2.516     2.481
   109   1 H        0.926     0.035     2.515     2.480
   110   1 H        0.926     0.034     2.532     2.488
   111   1 H        0.925     0.050     2.323     2.384

Wiberg/Mayer (AO) data.
largest (>0.10) Wiberg bond orders for each atom

     #   Z sym  total        # sym  WBO       # sym  WBO       # sym  WBO
 ---------------------------------------------------------------------------
     1  30 Zn   2.081 --    22 N    0.492    16 N    0.492    10 N    0.489
                            25 N    0.489
     2   6 C    3.954 --     3 C    1.651    24 C    1.171    26 H    0.972
     3   6 C    3.958 --     2 C    1.651     4 C    1.178    27 H    0.969
     4   6 C    3.917 --    25 N    1.284     5 C    1.258     3 C    1.178
     5   6 C    3.941 --     6 C    1.258     4 C    1.258    73 C    1.168
     6   6 C    3.917 --    10 N    1.284     5 C    1.258     7 C    1.178
     7   6 C    3.958 --     8 C    1.651     6 C    1.178    28 H    0.968
     8   6 C    3.954 --     7 C    1.651     9 C    1.171    29 H    0.972
     9   6 C    3.925 --    11 C    1.357    10 N    1.248     8 C    1.171
    10   7 N    3.467 --     6 C    1.284     9 C    1.248     1 Zn   0.489
    11   6 C    3.932 --     9 C    1.357    12 C    1.355    30 H    0.964
    12   6 C    3.930 --    11 C    1.355    16 N    1.261    13 C    1.163
    13   6 C    3.957 --    14 C    1.666    12 C    1.163    31 H    0.972
    14   6 C    3.955 --    13 C    1.666    15 C    1.162    32 H    0.972
    15   6 C    3.932 --    17 C    1.354    16 N    1.263    14 C    1.162
    16   7 N    3.465 --    15 C    1.263    12 C    1.261     1 Zn   0.492
    17   6 C    3.927 --    18 C    1.354    15 C    1.354    33 H    0.964
    18   6 C    3.932 --    17 C    1.354    22 N    1.263    19 C    1.162
    19   6 C    3.955 --    20 C    1.666    18 C    1.162    34 H    0.972
    20   6 C    3.957 --    19 C    1.666    21 C    1.163    35 H    0.972
    21   6 C    3.930 --    23 C    1.355    22 N    1.261    20 C    1.163
    22   7 N    3.465 --    18 C    1.263    21 C    1.261     1 Zn   0.492
    23   6 C    3.932 --    24 C    1.357    21 C    1.355    36 H    0.964
    24   6 C    3.925 --    23 C    1.357    25 N    1.248     2 C    1.171
    25   7 N    3.467 --     4 C    1.284    24 C    1.248     1 Zn   0.489
    26   1 H    0.998 --     2 C    0.972
    27   1 H    0.998 --     3 C    0.969
    28   1 H    0.998 --     7 C    0.968
    29   1 H    0.998 --     8 C    0.972
    30   1 H    0.996 --    11 C    0.964
    31   1 H    0.998 --    13 C    0.972
    32   1 H    0.998 --    14 C    0.972
    33   1 H    0.996 --    17 C    0.964
    34   1 H    0.998 --    19 C    0.972
    35   1 H    0.998 --    20 C    0.972
    36   1 H    0.996 --    23 C    0.964
    37  30 Zn   2.081 --    58 N    0.492    52 N    0.492    46 N    0.489
                            61 N    0.489
    38   6 C    3.954 --    39 C    1.651    60 C    1.171    62 H    0.972
    39   6 C    3.958 --    38 C    1.651    40 C    1.178    63 H    0.968
    40   6 C    3.917 --    61 N    1.284    41 C    1.258    39 C    1.178
    41   6 C    3.941 --    40 C    1.258    42 C    1.258    76 C    1.168
    42   6 C    3.917 --    46 N    1.284    41 C    1.258    43 C    1.178
    43   6 C    3.958 --    44 C    1.651    42 C    1.178    64 H    0.968
    44   6 C    3.954 --    43 C    1.651    45 C    1.171    65 H    0.972
    45   6 C    3.925 --    47 C    1.357    46 N    1.248    44 C    1.171
    46   7 N    3.467 --    42 C    1.284    45 C    1.248    37 Zn   0.489
    47   6 C    3.932 --    45 C    1.357    48 C    1.355    66 H    0.964
    48   6 C    3.930 --    47 C    1.355    52 N    1.260    49 C    1.163
    49   6 C    3.957 --    50 C    1.666    48 C    1.163    67 H    0.972
    50   6 C    3.955 --    49 C    1.666    51 C    1.162    68 H    0.972
    51   6 C    3.932 --    53 C    1.354    52 N    1.263    50 C    1.162
    52   7 N    3.465 --    51 C    1.263    48 C    1.260    37 Zn   0.492
    53   6 C    3.927 --    54 C    1.354    51 C    1.354    69 H    0.964
    54   6 C    3.932 --    53 C    1.354    58 N    1.263    55 C    1.162
    55   6 C    3.955 --    56 C    1.666    54 C    1.162    70 H    0.972
    56   6 C    3.957 --    55 C    1.666    57 C    1.163    71 H    0.972
    57   6 C    3.930 --    59 C    1.355    58 N    1.261    56 C    1.163
    58   7 N    3.465 --    54 C    1.263    57 C    1.261    37 Zn   0.492
    59   6 C    3.932 --    60 C    1.357    57 C    1.355    72 H    0.964
    60   6 C    3.925 --    59 C    1.357    61 N    1.248    38 C    1.171
    61   7 N    3.467 --    40 C    1.284    60 C    1.248    37 Zn   0.489
    62   1 H    0.998 --    38 C    0.972
    63   1 H    0.998 --    39 C    0.968
    64   1 H    0.998 --    43 C    0.968
    65   1 H    0.998 --    44 C    0.972
    66   1 H    0.996 --    47 C    0.964
    67   1 H    0.998 --    49 C    0.972
    68   1 H    0.998 --    50 C    0.972
    69   1 H    0.996 --    53 C    0.964
    70   1 H    0.998 --    55 C    0.972
    71   1 H    0.998 --    56 C    0.972
    72   1 H    0.996 --    59 C    0.964
    73   6 C    3.924 --    74 C    2.578     5 C    1.168
    74   6 C    3.926 --    73 C    2.578    81 C    1.170
    75   6 C    3.926 --    76 C    2.578    93 C    1.170
    76   6 C    3.924 --    75 C    2.578    41 C    1.168
    77  30 Zn   2.078 --    86 N    0.489    98 N    0.489   101 N    0.489
                            92 N    0.489
    78   6 C    3.954 --    79 C    1.649   100 C    1.172   102 H    0.972
    79   6 C    3.956 --    78 C    1.649    80 C    1.179   103 H    0.969
    80   6 C    3.918 --   101 N    1.285    81 C    1.257    79 C    1.179
    81   6 C    3.931 --    80 C    1.257    82 C    1.256    74 C    1.170
    82   6 C    3.918 --    86 N    1.285    81 C    1.256    83 C    1.179
    83   6 C    3.956 --    84 C    1.649    82 C    1.179   104 H    0.968
    84   6 C    3.954 --    83 C    1.649    85 C    1.172   105 H    0.972
    85   6 C    3.924 --    87 C    1.356    86 N    1.246    84 C    1.172
    86   7 N    3.461 --    82 C    1.285    85 C    1.246    77 Zn   0.489
    87   6 C    3.926 --    85 C    1.356    88 C    1.356   106 H    0.964
    88   6 C    3.924 --    87 C    1.356    92 N    1.246    89 C    1.172
    89   6 C    3.954 --    90 C    1.649    88 C    1.172   107 H    0.972
    90   6 C    3.956 --    89 C    1.649    91 C    1.179   108 H    0.968
    91   6 C    3.918 --    92 N    1.285    93 C    1.257    90 C    1.179
    92   7 N    3.461 --    91 C    1.285    88 C    1.246    77 Zn   0.489
    93   6 C    3.931 --    91 C    1.257    94 C    1.256    75 C    1.170
    94   6 C    3.918 --    98 N    1.285    93 C    1.256    95 C    1.179
    95   6 C    3.956 --    96 C    1.649    94 C    1.179   109 H    0.968
    96   6 C    3.954 --    95 C    1.649    97 C    1.172   110 H    0.972
    97   6 C    3.924 --    99 C    1.356    98 N    1.246    96 C    1.172
    98   7 N    3.461 --    94 C    1.285    97 C    1.246    77 Zn   0.489
    99   6 C    3.926 --   100 C    1.356    97 C    1.356   111 H    0.964
   100   6 C    3.924 --    99 C    1.356   101 N    1.246    78 C    1.172
   101   7 N    3.461 --    80 C    1.285   100 C    1.246    77 Zn   0.489
   102   1 H    0.998 --    78 C    0.972
   103   1 H    0.998 --    79 C    0.969
   104   1 H    0.998 --    83 C    0.968
   105   1 H    0.998 --    84 C    0.972
   106   1 H    0.996 --    87 C    0.964
   107   1 H    0.998 --    89 C    0.972
   108   1 H    0.998 --    90 C    0.968
   109   1 H    0.998 --    95 C    0.968
   110   1 H    0.998 --    96 C    0.972
   111   1 H    0.996 --    99 C    0.964
 ---------------------------------------------------------------------------

molecular dipole:
                 x           y           z       tot (Debye)
 q only:        0.000       0.002       0.003
   full:        0.000       0.003       0.006       0.017

 projected vibrational frequencies (cm⁻¹)
eigval :       -0.00    -0.00    -0.00     0.00     0.00     0.00
eigval :        3.55     6.46     8.04    12.45    12.86    15.18
eigval :       28.05    35.45    40.52    44.83    48.77    49.24
eigval :       53.14    56.79    68.84    70.16    72.25    75.83
eigval :       81.25    99.70   104.98   120.11   126.03   130.13
eigval :      133.22   133.99   140.98   165.86   167.24   168.39
eigval :      181.25   181.41   182.33   183.70   193.48   193.71
eigval :      195.03   197.22   197.72   198.19   198.39   198.81
eigval :      199.45   199.77   202.64   202.98   203.36   204.36
eigval :      220.14   232.94   242.73   262.36   263.86   265.23
eigval :      269.11   270.55   308.64   311.77   319.93   322.07
eigval :      322.71   332.26   332.39   338.53   338.69   354.28
eigval :      359.54   362.55   366.43   366.46   369.32   371.22
eigval :      372.71   376.94   385.67   385.92   385.99   397.03
eigval :      397.87   397.98   405.41   406.58   426.22   427.15
eigval :      429.24   432.14   432.18   457.55   459.83   460.06
eigval :      462.35   503.42   506.41   517.68   521.59   599.70
eigval :      608.17   623.97   624.27   626.63   626.65   628.42
eigval :      628.50   631.41   631.41   634.58   643.16   646.47
eigval :      646.51   648.34   648.38   655.66   660.17   660.89
eigval :      660.92   663.33   663.37   672.49   674.67   676.41
eigval :      678.33   721.50   721.57   731.58   731.64   758.95
eigval :      760.01   761.05   762.73   764.05   764.11   766.62
eigval :      767.88   776.16   776.23   780.82   780.89   792.22
eigval :      793.64   799.64   799.66   804.29   804.84   806.61
eigval :      807.02   807.77   809.04   813.25   813.87   819.25
eigval :      819.60   820.78   822.18   829.80   829.98   836.39
eigval :      836.90   838.21   839.22   840.15   840.78   842.54
eigval :      844.32   845.14   846.20   846.49   846.89   848.07
eigval :      848.19   852.22   853.01   854.84   855.08   891.68
eigval :      891.97   958.93   960.61   991.00   991.04  1003.26
eigval :     1003.48  1004.89  1005.37  1022.71  1023.27  1023.71
eigval :     1025.23  1026.44  1032.46  1035.50  1035.87  1037.72
eigval :     1037.92  1040.31  1045.81  1046.28  1050.96  1060.66
eigval :     1062.75  1062.97  1064.20  1067.95  1068.03  1070.24
eigval :     1070.91  1072.84  1073.34  1074.08  1075.44  1091.20
eigval :     1100.29  1140.74  1148.12  1155.51  1155.53  1165.44
eigval :     1167.51  1169.72  1176.67  1176.89  1182.08  1188.46
eigval :     1212.52  1225.02  1225.33  1238.90  1239.56  1241.74
eigval :     1271.92  1285.87  1286.26  1293.50  1296.69  1299.23
eigval :     1301.28  1301.32  1304.55  1316.63  1317.90  1318.16
eigval :     1326.02  1330.37  1333.79  1333.87  1342.92  1342.94
eigval :     1345.44  1345.98  1347.85  1349.56  1351.94  1357.90
eigval :     1365.11  1366.93  1366.96  1369.90  1372.44  1441.63
eigval :     1444.26  1446.33  1449.74  1449.95  1460.52  1467.01
eigval :     1478.07  1481.66  1495.78  1497.92  1501.92  1504.62
eigval :     1508.09  1508.20  1512.22  1515.06  1516.04  1516.09
eigval :     1516.78  1523.71  1526.61  1531.76  1531.85  1538.73
eigval :     1545.01  1550.43  1550.86  1555.64  1555.66  1564.69
eigval :     1565.09  1566.92  1593.32  1599.37  1599.40  2260.19
eigval :     2263.14  3077.13  3077.51  3077.57  3077.75  3077.83
eigval :     3077.90  3079.59  3079.68  3146.23  3146.27  3146.58
eigval :     3146.62  3151.38  3151.52  3151.63  3151.73  3151.78
eigval :     3152.00  3152.41  3152.52  3159.94  3159.98  3160.82
eigval :     3161.01  3166.51  3166.83  3167.33  3167.60  3167.94
eigval :     3168.30  3169.38  3169.59

   temp. (K)  partition function   enthalpy   heat capacity  entropy
                                   cal/mol     cal/K/mol   cal/K/mol   J/K/mol
 298.15  VIB  0.243E+30            37462.810    244.670    234.090
         ROT  0.281E+09              888.752      2.981     41.640
         INT  0.682E+38            38351.563    247.651    275.731
         TR   0.385E+29             1481.254      4.968     47.016
         TOT                       39832.8168   252.6191   322.7464  1350.3710

       T/K    H(0)-H(T)+PV         H(T)/Eh          T*S/Eh         G(T)/Eh
   ------------------------------------------------------------------------
    298.15    0.634776E-01    0.836769E+00    0.153347E+00    0.683422E+00
   ------------------------------------------------------------------------

         :::::::::::::::::::::::::::::::::::::::::::::::::::::
         ::                  THERMODYNAMIC                  ::
         :::::::::::::::::::::::::::::::::::::::::::::::::::::
         :: total free energy        -189.608398276943 Eh   ::
         ::.................................................::
         :: total energy             -190.291820373716 Eh   ::
         :: zero point energy           0.773291694269 Eh   ::
         :: G(RRHO) w/o ZPVE           -0.089869597496 Eh   ::
         :: G(RRHO) contrib.            0.683422096773 Eh   ::
         :::::::::::::::::::::::::::::::::::::::::::::::::::::

           -------------------------------------------------
          | TOTAL ENERGY             -190.291820373716 Eh   |
          | TOTAL ENTHALPY           -189.455051045423 Eh   |
          | TOTAL FREE ENERGY        -189.608398276943 Eh   |
          | GRADIENT NORM               0.000328399950 Eh/α |
          | HOMO-LUMO GAP               1.071401066586 eV   |
           -------------------------------------------------

 * finished run on 2021/11/18 at 18:41:55.739
