   * xtb version 6.4.1 (bd6e46d) compiled by 'conda@4901f00b25ba' on 2021-06-10
          program call               : /home/jeff/miniconda3/bin/xtb input_structure_1.xyz --gfn 2 --ohess normal --parallel 1 --etemp 300 --chrg 0 --uhf 0 -I det_control.in
          number of atoms            :                    80
          number of electrons        :                   250
          charge                     :                     0
          spin                       :                   0.0

   ID    Z sym.   atoms
    1    6 C      1-8, 10-14, 16-20, 22, 23, 38-51, 53-57, 59-63, 65, 66
    2    7 N      9, 15, 21, 24, 52, 58, 64, 67
    3    1 H      25-37, 68-80

          :  Hamiltonian                  GFN2-xTB          :
 * total energy  :  -134.3507174 Eh     change       -0.2087336E-07 Eh
 * total energy  :  -134.7031740 Eh     change       -0.3524566E+00 Eh
 * total energy  :  -134.7825438 Eh     change       -0.7936978E-01 Eh
 * total energy  :  -134.8214382 Eh     change       -0.3889440E-01 Eh
 * total energy  :  -134.8468579 Eh     change       -0.2541963E-01 Eh
 * total energy  :  -134.8675401 Eh     change       -0.2068221E-01 Eh
 * total energy  :  -134.8845471 Eh     change       -0.1700706E-01 Eh
 * total energy  :  -134.8987250 Eh     change       -0.1417791E-01 Eh
 * total energy  :  -134.9108077 Eh     change       -0.1208270E-01 Eh
 * total energy  :  -134.9212088 Eh     change       -0.1040109E-01 Eh
 * total energy  :  -134.9550098 Eh     change       -0.2358344E-04 Eh
 * total energy  :  -134.9550317 Eh     change       -0.2195242E-04 Eh
 * total energy  :  -134.9550502 Eh     change       -0.1843822E-04 Eh
 * total energy  :  -134.9550653 Eh     change       -0.1509845E-04 Eh
 * total energy  :  -134.9550780 Eh     change       -0.1270092E-04 Eh
 * total energy  :  -134.9550887 Eh     change       -0.1073393E-04 Eh
 * total energy  :  -134.9550963 Eh     change       -0.7605005E-05 Eh
 * total energy  :  -134.9551014 Eh     change       -0.5103573E-05 Eh
 * total energy  :  -134.9551050 Eh     change       -0.3605056E-05 Eh
   *** GEOMETRY OPTIMIZATION CONVERGED AFTER 59 ITERATIONS ***

 final structure:
================
80
 xtb: 6.4.1 (bd6e46d)
C         9.23579539530813    3.38667101983186    0.30785500743406
C        10.18912927653435    2.43743222757117    0.23516224476051
C         9.48499140450586    1.17536684535801    0.09512403043685
C        10.14277323926318   -0.06687287007824   -0.01197131346928
C         9.48463755115795   -1.30197066783904   -0.13341686252273
C        10.07801022332917   -2.58873121928811   -0.23243276412473
C         9.06631163349136   -3.49998799183677   -0.33248156602582
C         7.83361582287810   -2.78911442964291   -0.29899203560057
N         8.13903319680150   -1.46757602894179   -0.17602289131408
C         6.56217687078169   -3.33758713045985   -0.38213176620022
C         5.34859854597842   -2.66423410220383   -0.36183355579757
C         4.06824180271917   -3.34957165184574   -0.46686674770750
C         3.12394365356650   -2.39200260689864   -0.41629429440586
C         3.83446039723197   -1.13001996903148   -0.27928488166024
N         5.16881047828559   -1.33192397939178   -0.25038510304755
C         3.19504250414290    0.10012908109857   -0.19113606565818
C         3.82829502169686    1.32597267102653   -0.05586969496388
C         3.23323981086997    2.61618254210979    0.04292245926757
C         4.24051888797223    3.52700305422716    0.16491194040292
C         5.47675586821840    2.81755470326300    0.14281878084656
N         5.17551610471623    1.49929153891938    0.00859221525647
C         6.74794716094022    3.36409923012719    0.23743788513683
C         7.96206913534842    2.69434719536206    0.20868878027485
N         8.15443409228272    1.35920745432916    0.08329868199916
H         9.34706888975402    4.44850239723568    0.41566169414724
H        11.25613671596978    2.54296831158605    0.27070591115957
H        11.13401477642356   -2.77711073506525   -0.22568835496615
H         9.15481732068608   -4.56517700867839   -0.42239383490998
H         7.47435813822275   -0.70408810332013   -0.12495182664526
H         6.51433070223134   -4.41363735026877   -0.47752446995845
H         3.95104261724911   -4.41190580356226   -0.56499435597358
H         2.05617250873774   -2.48956409491796   -0.46301041313447
H         2.11532807248458    0.10207841736822   -0.22970329185520
H         2.17773463622877    2.80644754066033    0.02216082744636
H         4.15052435244447    4.59172940895774    0.26099931311477
H         5.83812998670633    0.73456380565950   -0.03907114612153
H         6.79740713664703    4.43928738665598    0.34210916590566
C        11.53866399858539   -0.07210109186696   -0.00110647992791
C        12.75898021764243   -0.05584003913963   -0.00054301608571
C        14.09458224062757   -0.03252140763222   -0.00312287038162
C        15.31888089998786    0.00040057888044   -0.00557265388410
C        16.65444600940272    0.02545845647562   -0.00787686593414
C        17.87469870572098    0.04517759290698   -0.00629301125836
C        25.32921674034974    3.36843623811654    0.37767745117200
C        26.27799524411727    2.41425582697067    0.35407736811974
C        25.57348639285343    1.14572688491748    0.25054416893566
C        26.21869220218910   -0.08337915058509    0.19664813872774
C        25.59130407366887   -1.31535921175336    0.09364778441449
C        26.19250017644791   -2.60497084119971    0.03066216819991
C        25.18967612697753   -3.52344481554658   -0.06851117259777
C        23.95012688158466   -2.81944795131504   -0.06766931973311
N        24.24502199050046   -1.49665335328904    0.03164605496743
C        22.68164575957707   -3.37422753018804   -0.14995065135823
C        21.46436640561425   -2.70965109161324   -0.14093889297946
C        20.19401287317554   -3.41027402740522   -0.22380080592582
C        19.23617154845020   -2.46393551761997   -0.17708291401005
C        19.93422832112795   -1.19538855207811   -0.06891315688157
N        21.26562145620140   -1.37261596889309   -0.05069758849859
C        19.27059207606626    0.04607379851750    0.00568759889914
C        19.92287344772088    1.28700346430606    0.09557155739374
C        19.32331896196277    2.57307725648953    0.16022466393308
C        20.33059947271007    3.49150018957618    0.23646757335432
C        21.56667632868343    2.78589721157509    0.22232219822094
N        21.26764440968831    1.46010371024048    0.13441442481438
C        22.83543890483404    3.34246183526651    0.29137084527776
C        24.05217427038125    2.67453707378789    0.28998930597631
N        24.23825810518084    1.34055676758340    0.21473268440592
H        25.44136285077975    4.43357508337871    0.44710642601051
H        27.34524686328268    2.51803554995741    0.39924807657221
H        27.29834287181428   -0.07925917640599    0.23679195041357
H        27.24883549635607   -2.78966347229666    0.05838403558934
H        25.28479054803554   -4.58993804434019   -0.13572281972563
H        23.57873377098448   -0.73407572850961    0.05756830700618
H        22.63736787593297   -4.45204723878791   -0.22611141116931
H        20.08786380136115   -4.47506188352511   -0.30413224167920
H        18.16970890555584   -2.57533592184451   -0.21125277530457
H        18.26643362407437    2.75615003511063    0.14806414843515
H        20.23694601716273    4.55826156269858    0.29804534787004
H        21.93597759617846    0.69874088548399    0.10366249524667
H        22.87812060465400    4.42089692552423    0.35788717185299

          :  Hamiltonian                  GFN2-xTB          :
         :: gradient norm              0.000274626431 Eh/a0 ::
         :: HOMO-LUMO gap              1.106491066972 eV    ::
         :: SCC energy              -137.523159586249 Eh    ::
         :: -> dispersion             -0.106445150433 Eh    ::
         :: repulsion energy           2.569204884520 Eh    ::

    * Orbital Energies and Occupations

         #    Occupation            Energy/Eh            Energy/eV
      -------------------------------------------------------------
         1        2.0000           -0.6838018             -18.6072
       ...           ...                  ...                  ...
       113        2.0000           -0.3917664             -10.6605
       114        2.0000           -0.3879787             -10.5574
       115        2.0000           -0.3878676             -10.5544
       116        2.0000           -0.3859678             -10.5027
       117        2.0000           -0.3779356             -10.2842
       118        2.0000           -0.3719749             -10.1220
       119        2.0000           -0.3717927             -10.1170
       120        2.0000           -0.3709809             -10.0949
       121        2.0000           -0.3709770             -10.0948
       122        2.0000           -0.3685446             -10.0286
       123        2.0000           -0.3683961             -10.0246
       124        2.0000           -0.3609703              -9.8225
       125        2.0000           -0.3492332              -9.5031 (HOMO)
       126                         -0.3085704              -8.3966 (LUMO)
       127                         -0.2981809              -8.1139
       128                         -0.2972927              -8.0897
       129                         -0.2955049              -8.0411
       130                         -0.2652406              -7.2176
       131                         -0.2565503              -6.9811
       132                         -0.2506713              -6.8211
       133                         -0.2251310              -6.1261
       134                         -0.1899923              -5.1700
       135                         -0.1892050              -5.1485
       136                         -0.1733934              -4.7183
       ...                                ...                  ...
       242                          1.7168390              46.7176
      -------------------------------------------------------------
                  HL-Gap            0.0406628 Eh            1.1065 eV

     #   Z          covCN         q      C6AA      α(0)
     1   6 C        3.017    -0.055    29.337     8.885
     2   6 C        3.009    -0.053    29.302     8.880
     3   6 C        3.196     0.087    25.563     8.242
     4   6 C        2.952     0.011    27.760     8.642
     5   6 C        3.097     0.064    26.453     8.429
     6   6 C        3.026    -0.050    29.210     8.865
     7   6 C        3.034    -0.052    29.253     8.871
     8   6 C        3.073     0.064    26.485     8.438
     9   7 N        2.785    -0.081    22.822     7.095
    10   6 C        2.899    -0.055    29.367     8.885
    11   6 C        3.170     0.087    25.719     8.285
    12   6 C        3.012    -0.054    29.316     8.882
    13   6 C        3.009    -0.054    29.318     8.882
    14   6 C        3.174     0.086    25.708     8.281
    15   7 N        1.870    -0.321    29.174     8.006
    16   6 C        2.899    -0.057    29.411     8.892
    17   6 C        3.074     0.065    26.471     8.436
    18   6 C        3.025    -0.051    29.240     8.870
    19   6 C        3.031    -0.051    29.231     8.868
    20   6 C        3.068     0.066    26.461     8.435
    21   7 N        2.787    -0.081    22.816     7.094
    22   6 C        2.899    -0.055    29.366     8.885
    23   6 C        3.175     0.086    25.721     8.283
    24   7 N        1.870    -0.325    29.280     8.021
    25   1 H        0.926     0.019     2.755     2.596
    26   1 H        0.926     0.021     2.715     2.577
    27   1 H        0.926     0.043     2.406     2.426
    28   1 H        0.926     0.041     2.432     2.439
    29   1 H        0.860     0.214     1.037     1.595
    30   1 H        0.925     0.047     2.360     2.402
    31   1 H        0.926     0.019     2.743     2.590
    32   1 H        0.926     0.019     2.742     2.589
    33   1 H        0.926     0.046     2.370     2.407
    34   1 H        0.926     0.042     2.424     2.435
    35   1 H        0.926     0.042     2.425     2.435
    36   1 H        0.860     0.214     1.035     1.594
    37   1 H        0.925     0.047     2.358     2.401
    38   6 C        1.995    -0.021    31.600     9.078
    39   6 C        1.963    -0.012    31.387     9.047
    40   6 C        1.964    -0.004    31.172     9.016
    41   6 C        1.964    -0.004    31.172     9.016
    42   6 C        1.963    -0.012    31.387     9.047
    43   6 C        1.995    -0.021    31.599     9.078
    44   6 C        3.012    -0.054    29.316     8.882
    45   6 C        3.009    -0.054    29.318     8.882
    46   6 C        3.174     0.086    25.708     8.281
    47   6 C        2.899    -0.057    29.411     8.892
    48   6 C        3.074     0.065    26.470     8.436
    49   6 C        3.025    -0.051    29.240     8.870
    50   6 C        3.031    -0.051    29.231     8.868
    51   6 C        3.068     0.066    26.461     8.435
    52   7 N        2.787    -0.081    22.816     7.094
    53   6 C        2.899    -0.055    29.366     8.885
    54   6 C        3.175     0.086    25.721     8.283
    55   6 C        3.017    -0.055    29.337     8.885
    56   6 C        3.009    -0.053    29.302     8.880
    57   6 C        3.196     0.087    25.564     8.242
    58   7 N        1.870    -0.325    29.280     8.021
    59   6 C        2.952     0.011    27.760     8.642
    60   6 C        3.097     0.064    26.453     8.429
    61   6 C        3.026    -0.050    29.210     8.865
    62   6 C        3.034    -0.052    29.253     8.871
    63   6 C        3.073     0.064    26.485     8.438
    64   7 N        2.785    -0.081    22.822     7.095
    65   6 C        2.899    -0.055    29.367     8.885
    66   6 C        3.170     0.087    25.719     8.285
    67   7 N        1.870    -0.321    29.174     8.006
    68   1 H        0.926     0.019     2.743     2.590
    69   1 H        0.926     0.019     2.742     2.589
    70   1 H        0.926     0.046     2.370     2.407
    71   1 H        0.926     0.042     2.424     2.435
    72   1 H        0.926     0.042     2.425     2.435
    73   1 H        0.860     0.214     1.035     1.594
    74   1 H        0.925     0.047     2.358     2.401
    75   1 H        0.926     0.019     2.755     2.596
    76   1 H        0.926     0.021     2.715     2.577
    77   1 H        0.926     0.043     2.406     2.426
    78   1 H        0.926     0.041     2.432     2.439
    79   1 H        0.860     0.214     1.037     1.595
    80   1 H        0.925     0.047     2.360     2.402

Wiberg/Mayer (AO) data.
largest (>0.10) Wiberg bond orders for each atom

     #   Z sym  total        # sym  WBO       # sym  WBO       # sym  WBO
 ---------------------------------------------------------------------------
     1   6 C    3.960 --     2 C    1.716    23 C    1.115    25 H    0.973
     2   6 C    3.961 --     1 C    1.716     3 C    1.122    26 H    0.971
     3   6 C    3.915 --    24 N    1.362     4 C    1.242     2 C    1.122
     4   6 C    3.940 --     5 C    1.248     3 C    1.242    38 C    1.193
     5   6 C    3.901 --     4 C    1.248     6 C    1.238     9 N    1.225
     6   6 C    3.955 --     7 C    1.592     5 C    1.238    27 H    0.972
     7   6 C    3.948 --     6 C    1.592     8 C    1.224    28 H    0.973
     8   6 C    3.918 --    10 C    1.344     7 C    1.224     9 N    1.202
     9   7 N    3.590 --     5 C    1.225     8 C    1.202    29 H    0.900
    10   6 C    3.921 --    11 C    1.357     8 C    1.344    30 H    0.964
    11   6 C    3.939 --    10 C    1.357    15 N    1.324    12 C    1.107
    12   6 C    3.963 --    13 C    1.731    11 C    1.107    31 H    0.973
    13   6 C    3.962 --    12 C    1.731    14 C    1.109    32 H    0.973
    14   6 C    3.938 --    16 C    1.354    15 N    1.325    13 C    1.109
    15   7 N    3.002 --    14 C    1.325    11 C    1.324
    16   6 C    3.923 --    14 C    1.354    17 C    1.347    33 H    0.965
    17   6 C    3.921 --    16 C    1.347    18 C    1.216    21 N    1.210
    18   6 C    3.949 --    19 C    1.608    17 C    1.216    34 H    0.973
    19   6 C    3.953 --    18 C    1.608    20 C    1.215    35 H    0.973
    20   6 C    3.916 --    22 C    1.342    19 C    1.215    21 N    1.211
    21   7 N    3.586 --    20 C    1.211    17 C    1.210    36 H    0.900
    22   6 C    3.937 --    23 C    1.366    20 C    1.342    37 H    0.963
    23   6 C    3.924 --    22 C    1.366    24 N    1.299     1 C    1.115
    24   7 N    3.010 --     3 C    1.362    23 C    1.299
    25   1 H    0.999 --     1 C    0.973
    26   1 H    0.999 --     2 C    0.971
    27   1 H    0.998 --     6 C    0.972
    28   1 H    0.998 --     7 C    0.973
    29   1 H    0.954 --     9 N    0.900
    30   1 H    0.997 --    10 C    0.964
    31   1 H    0.999 --    12 C    0.973
    32   1 H    0.999 --    13 C    0.973
    33   1 H    0.997 --    16 C    0.965
    34   1 H    0.998 --    18 C    0.973
    35   1 H    0.998 --    19 C    0.973
    36   1 H    0.954 --    21 N    0.900
    37   1 H    0.997 --    22 C    0.963
    38   6 C    3.883 --    39 C    2.437     4 C    1.193    41 C    0.192
    39   6 C    3.924 --    38 C    2.437    40 C    1.335
    40   6 C    3.918 --    41 C    2.353    39 C    1.335    43 C    0.192
    41   6 C    3.918 --    40 C    2.353    42 C    1.335    38 C    0.192
    42   6 C    3.924 --    43 C    2.437    41 C    1.335
    43   6 C    3.883 --    42 C    2.437    59 C    1.193    40 C    0.192
    44   6 C    3.963 --    45 C    1.731    66 C    1.107    68 H    0.973
    45   6 C    3.962 --    44 C    1.731    46 C    1.109    69 H    0.973
    46   6 C    3.938 --    47 C    1.354    67 N    1.325    45 C    1.109
    47   6 C    3.923 --    46 C    1.354    48 C    1.347    70 H    0.965
    48   6 C    3.921 --    47 C    1.347    49 C    1.216    52 N    1.210
    49   6 C    3.949 --    50 C    1.608    48 C    1.216    71 H    0.973
    50   6 C    3.953 --    49 C    1.608    51 C    1.215    72 H    0.973
    51   6 C    3.916 --    53 C    1.342    50 C    1.215    52 N    1.211
    52   7 N    3.586 --    51 C    1.211    48 C    1.210    73 H    0.900
    53   6 C    3.937 --    54 C    1.366    51 C    1.342    74 H    0.963
    54   6 C    3.924 --    53 C    1.366    58 N    1.299    55 C    1.115
    55   6 C    3.960 --    56 C    1.716    54 C    1.115    75 H    0.973
    56   6 C    3.961 --    55 C    1.716    57 C    1.122    76 H    0.971
    57   6 C    3.915 --    58 N    1.361    59 C    1.242    56 C    1.122
    58   7 N    3.010 --    57 C    1.361    54 C    1.299
    59   6 C    3.940 --    60 C    1.248    57 C    1.242    43 C    1.193
    60   6 C    3.901 --    59 C    1.248    61 C    1.238    64 N    1.225
    61   6 C    3.955 --    62 C    1.592    60 C    1.238    77 H    0.972
    62   6 C    3.948 --    61 C    1.592    63 C    1.224    78 H    0.973
    63   6 C    3.918 --    65 C    1.344    62 C    1.224    64 N    1.202
    64   7 N    3.590 --    60 C    1.225    63 C    1.202    79 H    0.900
    65   6 C    3.921 --    66 C    1.357    63 C    1.344    80 H    0.964
    66   6 C    3.939 --    65 C    1.357    67 N    1.324    44 C    1.107
    67   7 N    3.002 --    46 C    1.325    66 C    1.324
    68   1 H    0.999 --    44 C    0.973
    69   1 H    0.999 --    45 C    0.973
    70   1 H    0.997 --    47 C    0.965
    71   1 H    0.998 --    49 C    0.973
    72   1 H    0.998 --    50 C    0.973
    73   1 H    0.954 --    52 N    0.900
    74   1 H    0.997 --    53 C    0.963
    75   1 H    0.999 --    55 C    0.973
    76   1 H    0.999 --    56 C    0.971
    77   1 H    0.998 --    61 C    0.972
    78   1 H    0.998 --    62 C    0.973
    79   1 H    0.954 --    64 N    0.900
    80   1 H    0.997 --    65 C    0.964
 ---------------------------------------------------------------------------

molecular dipole:
                 x           y           z       tot (Debye)
 q only:       -0.000       0.002       0.001
   full:       -0.000       0.002       0.000       0.006

 projected vibrational frequencies (cm⁻¹)
eigval :       -0.00    -0.00    -0.00    -0.00     0.00     0.00
eigval :        4.41     6.35     7.66    16.99    23.37    37.56
eigval :       42.02    42.40    42.84    59.65    65.84    81.65
eigval :       89.87    93.15    94.31   108.76   114.52   116.08
eigval :      120.30   141.81   142.29   151.41   163.66   180.26
eigval :      183.14   184.12   194.19   201.95   202.61   209.42
eigval :      254.37   265.32   265.41   269.28   270.96   277.02
eigval :      294.19   296.08   299.37   317.02   339.77   341.68
eigval :      344.96   349.77   350.55   354.47   357.19   361.98
eigval :      362.28   364.31   382.63   393.37   394.02   394.11
eigval :      418.63   421.65   430.11   430.26   437.85   441.51
eigval :      456.21   502.97   503.48   600.74   600.88   605.48
eigval :      605.66   627.15   627.27   636.65   636.70   647.00
eigval :      647.03   650.66   650.72   653.56   653.61   658.59
eigval :      658.86   668.52   668.79   701.07   713.97   717.10
eigval :      722.92   725.77   728.63   728.96   741.82   742.83
eigval :      748.01   749.60   760.79   762.01   770.70   770.84
eigval :      789.34   789.77   798.46   798.51   806.18   806.21
eigval :      812.02   812.15   819.19   819.25   827.89   827.93
eigval :      836.49   836.50   839.26   839.31   842.32   842.32
eigval :      842.91   842.91   852.45   852.46   853.70   853.73
eigval :      896.97   949.52   960.14   960.34   972.57   972.69
eigval :      976.79   977.72   999.81   999.96  1006.82  1010.13
eigval :     1016.09  1016.60  1031.35  1031.68  1046.60  1063.46
eigval :     1063.57  1066.60  1066.63  1069.45  1069.77  1074.96
eigval :     1074.99  1096.04  1118.48  1122.67  1126.09  1140.36
eigval :     1151.02  1160.99  1169.94  1180.97  1183.46  1184.29
eigval :     1188.24  1206.09  1208.05  1233.15  1233.66  1255.09
eigval :     1257.03  1284.50  1285.52  1294.56  1305.06  1305.83
eigval :     1337.89  1338.55  1346.96  1347.15  1362.00  1366.44
eigval :     1375.04  1375.07  1383.18  1383.23  1387.91  1388.10
eigval :     1392.64  1397.39  1446.22  1456.27  1467.84  1477.86
eigval :     1481.47  1490.54  1504.18  1505.25  1506.67  1508.61
eigval :     1510.20  1513.56  1513.64  1549.54  1550.10  1554.79
eigval :     1555.28  1560.29  1560.54  1585.32  1585.37  1594.39
eigval :     1594.57  2151.19  2200.42  2261.43  3076.74  3076.87
eigval :     3077.63  3077.68  3086.54  3086.54  3140.02  3140.03
eigval :     3145.05  3145.10  3155.12  3155.33  3156.54  3156.55
eigval :     3159.61  3159.63  3161.80  3161.87  3168.95  3169.14
eigval :     3172.02  3172.12  3347.50  3347.67  3356.46  3356.53

   temp. (K)  partition function   enthalpy   heat capacity  entropy
                                   cal/mol     cal/K/mol   cal/K/mol   J/K/mol
 298.15  VIB  0.464E+21            25688.539    169.094    161.388
         ROT  0.215E+09              888.752      2.981     41.108
         INT  0.997E+29            26577.292    172.074    202.496
         TR   0.176E+29             1481.254      4.968     45.458
         TOT                       28058.5455   177.0426   247.9538  1037.4386

       T/K    H(0)-H(T)+PV         H(T)/Eh          T*S/Eh         G(T)/Eh
   ------------------------------------------------------------------------
    298.15    0.447141E-01    0.622986E+00    0.117811E+00    0.505175E+00
   ------------------------------------------------------------------------

         :::::::::::::::::::::::::::::::::::::::::::::::::::::
         ::                  THERMODYNAMIC                  ::
         :::::::::::::::::::::::::::::::::::::::::::::::::::::
         :: total free energy        -134.449929963342 Eh   ::
         ::.................................................::
         :: total energy             -134.955105004784 Eh   ::
         :: zero point energy           0.578271745164 Eh   ::
         :: G(RRHO) w/o ZPVE           -0.073096703723 Eh   ::
         :: G(RRHO) contrib.            0.505175041442 Eh   ::
         :::::::::::::::::::::::::::::::::::::::::::::::::::::

           -------------------------------------------------
          | TOTAL ENERGY             -134.955105004784 Eh   |
          | TOTAL ENTHALPY           -134.332119121140 Eh   |
          | TOTAL FREE ENERGY        -134.449929963342 Eh   |
          | GRADIENT NORM               0.000274644691 Eh/α |
          | HOMO-LUMO GAP               1.106491274859 eV   |
           -------------------------------------------------

 * finished run on 2021/11/19 at 15:14:06.559
