   * xtb version 6.4.1 (bd6e46d) compiled by 'conda@4901f00b25ba' on 2021-06-10
          program call               : /home/jeff/miniconda3/bin/xtb input_structure_1.xyz --gfn 2 --ohess normal --parallel 1 --etemp 300 --chrg 0 --uhf 0 -I det_control.in
          number of atoms            :                    74
          number of electrons        :                   234
          charge                     :                     0
          spin                       :                   0.0

   ID    Z sym.   atoms
    1   30 Zn     1, 39
    2    6 C      2-9, 11-15, 17-21, 23, 24, 37, 38, 40-47, 49-53, 55-59, 61,
                  62
    3    7 N      10, 16, 22, 25, 48, 54, 60, 63
    4    1 H      26-36, 64-74

          :  Hamiltonian                  GFN2-xTB          :
 * total energy  :  -124.8242771 Eh     change       -0.1618602E-08 Eh
 * total energy  :  -125.3590373 Eh     change       -0.5347602E+00 Eh
 * total energy  :  -125.5185428 Eh     change       -0.1595055E+00 Eh
 * total energy  :  -125.5950430 Eh     change       -0.7650027E-01 Eh
 * total energy  :  -125.6420833 Eh     change       -0.4704027E-01 Eh
 * total energy  :  -125.6694647 Eh     change       -0.2738136E-01 Eh
 * total energy  :  -125.6887973 Eh     change       -0.1933266E-01 Eh
 * total energy  :  -125.7037309 Eh     change       -0.1493355E-01 Eh
 * total energy  :  -125.7155641 Eh     change       -0.1183327E-01 Eh
 * total energy  :  -125.7251792 Eh     change       -0.9615040E-02 Eh
 * total energy  :  -125.7811941 Eh     change       -0.1816381E-04 Eh
 * total energy  :  -125.7812074 Eh     change       -0.1332692E-04 Eh
 * total energy  :  -125.7812195 Eh     change       -0.1209265E-04 Eh
 * total energy  :  -125.7812295 Eh     change       -0.1002439E-04 Eh
 * total energy  :  -125.7812382 Eh     change       -0.8659038E-05 Eh
 * total energy  :  -125.7812462 Eh     change       -0.8027919E-05 Eh
 * total energy  :  -125.7812537 Eh     change       -0.7461015E-05 Eh
 * total energy  :  -125.7812596 Eh     change       -0.5900016E-05 Eh
 * total energy  :  -125.7812631 Eh     change       -0.3532560E-05 Eh
   *** GEOMETRY OPTIMIZATION CONVERGED AFTER 88 ITERATIONS ***

 final structure:
================
74
 xtb: 6.4.1 (bd6e46d)
Zn        9.20178344529739   -0.06343385468573    0.07105536930307
C        11.74713670565231   -3.36896280710561    0.96591728131430
C        12.69657328600928   -2.43840335691326    0.70534130662217
C        12.00372124063334   -1.23070171068757    0.35637506918760
C        12.63738580686336   -0.02742749976222    0.01098974379077
C        11.96718756416209    1.15944574783313   -0.32146380909615
C        12.62189850829378    2.37754497529899   -0.70615652598685
C        11.64423201125137    3.28377517096644   -0.94759806522308
C        10.39478040403426    2.61675999521375   -0.71323167663968
N        10.62260844745697    1.32720841596907   -0.33778981878143
C         9.15151438373499    3.21143721374789   -0.85157665138789
C         7.92755424420952    2.59802086757964   -0.64370076798136
C         6.65205599114271    3.24535910912536   -0.79145888470772
C         5.70913673408771    2.31792345393609   -0.50477225456679
C         6.40763800506526    1.10246967691105   -0.18334858733721
N         7.74834048221234    1.30256963253579   -0.27469719962250
C         5.79376127534173   -0.09036377906577    0.16205560694393
C         6.44384159270755   -1.27492936846720    0.46797733294042
C         5.78260809816492   -2.50288135446147    0.81890529648686
C         6.75374377405110   -3.41868848813712    1.04216803058834
C         8.00909369852772   -2.75080696097236    0.82911233717675
N         7.79032209027627   -1.45521213596331    0.48223986596498
C         9.25187999294333   -3.34544420873919    0.96853518929087
C        10.47671695191672   -2.72586836693912    0.78354378616126
N        10.66435374646175   -1.42778403808397    0.41521339891404
H        11.87952767382233   -4.39271597619964    1.25860186678665
H        13.76341832284595   -2.53955867714341    0.75265109771566
H        13.68428007151829    2.50099491491544   -0.78929694825476
H        11.74459692564388    4.30599800210569   -1.25785693924675
H         9.13646414054887    4.25046136862970   -1.15019932066398
H         6.51582678073370    4.27107600162138   -1.07607663006953
H         4.64153980843159    2.42734208046344   -0.50660525860083
H         4.71322622801973   -0.09820066695935    0.19336431154363
H         4.71860847222029   -2.62817134683972    0.88114344066979
H         6.64908935207848   -4.44866011308569    1.32486183619058
H         9.26912091250618   -4.38776998509387    1.25541698930965
C        14.04154937009548   -0.01085175130372   -0.00434137730309
C        15.25402196411504    0.00424761113416   -0.01411286073837
Zn       20.09407892312617    0.06239886526644   -0.07020967373118
C        17.57159491934873    3.34784303859510    0.95436105097285
C        16.61591956900534    2.42087573775387    0.70361204753472
C        17.29996369287600    1.21988511321425    0.31603621797598
C        16.65822959455209    0.02056021867390   -0.02804448154540
C        17.32035202585094   -1.16379318955873   -0.38496662337204
C        16.65650133926949   -2.38194895614899   -0.75358213420279
C        17.62789275233829   -3.28670260812135   -1.02398287033190
C        18.88265849903036   -2.61794266529730   -0.82572557507386
N        18.66404516349899   -1.32970182771948   -0.44033471403505
C        20.12208436686283   -3.20806025186131   -1.00954310624773
C        21.35057050811291   -2.58944189207580   -0.84902729531991
C        22.62182947499025   -3.22907202455777   -1.05473489742256
C        23.57129156007185   -2.29694310515571   -0.80747016566426
C        22.88093847016042   -1.08684247523605   -0.45051463204977
N        21.53862811070172   -1.29431904576841   -0.48324054238021
C        23.50271588002604    0.10771878499120   -0.12570374759090
C        22.86025513956882    1.28501550097760    0.22141045068571
C        23.52964208555851    2.51288514801805    0.55721293583564
C        22.56446687724066    3.41869328630770    0.83890096880961
C        21.30459425121338    2.74544968270983    0.67496552885742
N        21.51483897803650    1.45622049715303    0.30018165326190
C        20.06583851713176    3.33105526499403    0.87535506838758
C        18.83700939926837    2.71013903628094    0.72409596308394
N        18.64028829646868    1.41774674217878    0.34062316413170
H        17.44648960785976    4.36626861729171    1.26823090530863
H        15.55059677801147    2.52009067775525    0.78125558648140
H        15.59245712556035   -2.50685148358448   -0.80705129656591
H        17.51990974910100   -4.30872610554993   -1.33243303136358
H        20.12991211450197   -4.24627519095333   -1.31113016472993
H        22.75089113698973   -4.25303579445830   -1.34891524312290
H        24.63831512463588   -2.40013744947196   -0.85742426334827
H        24.58344450811620    0.12244524900735   -0.14424969365392
H        24.59460546801031    2.64481642646550    0.57054754150843
H        22.67616312927326    4.44545086737246    1.13046146009597
H        20.05567336104814    4.36843551866979    1.17985102805459

          :  Hamiltonian                  GFN2-xTB          :
         :: gradient norm              0.000363138068 Eh/a0 ::
         :: HOMO-LUMO gap              1.278333653770 eV    ::
         :: SCC energy              -127.998378583110 Eh    ::
         :: -> dispersion             -0.117116107670 Eh    ::
         :: repulsion energy           2.218373701425 Eh    ::

    * Orbital Energies and Occupations

         #    Occupation            Energy/Eh            Energy/eV
      -------------------------------------------------------------
         1        2.0000           -0.6658403             -18.1184
       ...           ...                  ...                  ...
       105        2.0000           -0.4037016             -10.9853
       106        2.0000           -0.4006019             -10.9009
       107        2.0000           -0.4005959             -10.9008
       108        2.0000           -0.4001506             -10.8887
       109        2.0000           -0.4001200             -10.8878
       110        2.0000           -0.3998231             -10.8797
       111        2.0000           -0.3985523             -10.8452
       112        2.0000           -0.3850228             -10.4770
       113        2.0000           -0.3850165             -10.4768
       114        2.0000           -0.3683763             -10.0240
       115        2.0000           -0.3679907             -10.0135
       116        2.0000           -0.3679858             -10.0134
       117        2.0000           -0.3539373              -9.6311 (HOMO)
       118                         -0.3069593              -8.3528 (LUMO)
       119                         -0.2973166              -8.0904
       120                         -0.2973134              -8.0903
       121                         -0.2913778              -7.9288
       122                         -0.2613824              -7.1126
       123                         -0.2529512              -6.8832
       124                         -0.1883633              -5.1256
       125                         -0.1883558              -5.1254
       126                         -0.1761208              -4.7925
       127                         -0.1705302              -4.6404
       128                         -0.1689170              -4.5965
       ...                                ...                  ...
       230                          1.4086164              38.3304
      -------------------------------------------------------------
                  HL-Gap            0.0469779 Eh            1.2783 eV

     #   Z          covCN         q      C6AA      α(0)
     1  30 Zn       3.043     0.244   122.303    21.603
     2   6 C        3.020    -0.052    29.271     8.875
     3   6 C        3.018    -0.050    29.230     8.868
     4   6 C        3.164     0.077    25.970     8.329
     5   6 C        2.953     0.018    27.599     8.617
     6   6 C        3.164     0.077    25.970     8.329
     7   6 C        3.018    -0.050    29.230     8.868
     8   6 C        3.020    -0.052    29.271     8.875
     9   6 C        3.148     0.076    26.054     8.350
    10   7 N        2.632    -0.176    24.829     7.400
    11   6 C        2.901    -0.050    29.246     8.867
    12   6 C        3.145     0.077    26.042     8.349
    13   6 C        3.017    -0.051    29.247     8.871
    14   6 C        3.018    -0.051    29.251     8.872
    15   6 C        3.145     0.077    26.032     8.348
    16   7 N        2.635    -0.175    24.793     7.395
    17   6 C        2.901    -0.052    29.288     8.873
    18   6 C        3.145     0.077    26.031     8.348
    19   6 C        3.018    -0.051    29.251     8.872
    20   6 C        3.017    -0.051    29.247     8.871
    21   6 C        3.145     0.077    26.042     8.349
    22   7 N        2.635    -0.175    24.794     7.395
    23   6 C        2.901    -0.050    29.246     8.867
    24   6 C        3.148     0.076    26.054     8.350
    25   7 N        2.632    -0.176    24.829     7.400
    26   1 H        0.926     0.034     2.535     2.490
    27   1 H        0.926     0.035     2.516     2.481
    28   1 H        0.926     0.035     2.516     2.480
    29   1 H        0.926     0.034     2.535     2.490
    30   1 H        0.926     0.049     2.333     2.389
    31   1 H        0.926     0.034     2.530     2.487
    32   1 H        0.926     0.034     2.531     2.488
    33   1 H        0.926     0.048     2.342     2.393
    34   1 H        0.926     0.034     2.531     2.488
    35   1 H        0.926     0.034     2.530     2.487
    36   1 H        0.925     0.049     2.333     2.389
    37   6 C        1.994    -0.029    31.818     9.109
    38   6 C        1.994    -0.029    31.818     9.109
    39  30 Zn       3.042     0.244   122.303    21.603
    40   6 C        3.020    -0.052    29.271     8.875
    41   6 C        3.018    -0.050    29.230     8.868
    42   6 C        3.164     0.077    25.970     8.329
    43   6 C        2.953     0.018    27.599     8.617
    44   6 C        3.164     0.077    25.969     8.329
    45   6 C        3.018    -0.050    29.230     8.868
    46   6 C        3.020    -0.052    29.271     8.875
    47   6 C        3.148     0.076    26.054     8.350
    48   7 N        2.632    -0.176    24.829     7.400
    49   6 C        2.901    -0.050    29.246     8.867
    50   6 C        3.145     0.077    26.042     8.349
    51   6 C        3.017    -0.051    29.247     8.871
    52   6 C        3.018    -0.051    29.251     8.872
    53   6 C        3.145     0.077    26.031     8.348
    54   7 N        2.635    -0.175    24.793     7.395
    55   6 C        2.901    -0.052    29.288     8.873
    56   6 C        3.145     0.077    26.031     8.348
    57   6 C        3.018    -0.051    29.251     8.872
    58   6 C        3.017    -0.051    29.247     8.871
    59   6 C        3.145     0.077    26.042     8.349
    60   7 N        2.634    -0.175    24.793     7.395
    61   6 C        2.901    -0.050    29.246     8.867
    62   6 C        3.148     0.076    26.055     8.350
    63   7 N        2.632    -0.176    24.829     7.400
    64   1 H        0.926     0.034     2.535     2.490
    65   1 H        0.926     0.035     2.516     2.480
    66   1 H        0.926     0.035     2.517     2.481
    67   1 H        0.926     0.034     2.535     2.490
    68   1 H        0.926     0.049     2.333     2.389
    69   1 H        0.926     0.034     2.530     2.487
    70   1 H        0.926     0.034     2.531     2.488
    71   1 H        0.926     0.048     2.342     2.393
    72   1 H        0.926     0.034     2.531     2.488
    73   1 H        0.926     0.034     2.530     2.487
    74   1 H        0.926     0.049     2.333     2.389

Wiberg/Mayer (AO) data.
largest (>0.10) Wiberg bond orders for each atom

     #   Z sym  total        # sym  WBO       # sym  WBO       # sym  WBO
 ---------------------------------------------------------------------------
     1  30 Zn   2.082 --    16 N    0.492    22 N    0.492    25 N    0.489
                            10 N    0.489
     2   6 C    3.954 --     3 C    1.652    24 C    1.171    26 H    0.972
     3   6 C    3.958 --     2 C    1.652     4 C    1.178    27 H    0.969
     4   6 C    3.918 --    25 N    1.283     5 C    1.260     3 C    1.178
     5   6 C    3.942 --     6 C    1.260     4 C    1.260    37 C    1.165
     6   6 C    3.918 --    10 N    1.283     5 C    1.260     7 C    1.178
     7   6 C    3.958 --     8 C    1.652     6 C    1.178    28 H    0.969
     8   6 C    3.954 --     7 C    1.652     9 C    1.170    29 H    0.972
     9   6 C    3.925 --    11 C    1.356    10 N    1.249     8 C    1.170
    10   7 N    3.467 --     6 C    1.283     9 C    1.249     1 Zn   0.489
    11   6 C    3.932 --     9 C    1.356    12 C    1.355    30 H    0.964
    12   6 C    3.930 --    11 C    1.355    16 N    1.261    13 C    1.162
    13   6 C    3.957 --    14 C    1.666    12 C    1.162    31 H    0.972
    14   6 C    3.955 --    13 C    1.666    15 C    1.162    32 H    0.972
    15   6 C    3.932 --    17 C    1.354    16 N    1.263    14 C    1.162
    16   7 N    3.465 --    15 C    1.263    12 C    1.261     1 Zn   0.492
    17   6 C    3.928 --    15 C    1.354    18 C    1.354    33 H    0.964
    18   6 C    3.932 --    17 C    1.354    22 N    1.263    19 C    1.162
    19   6 C    3.955 --    20 C    1.666    18 C    1.162    34 H    0.972
    20   6 C    3.957 --    19 C    1.666    21 C    1.163    35 H    0.972
    21   6 C    3.930 --    23 C    1.355    22 N    1.260    20 C    1.163
    22   7 N    3.465 --    18 C    1.263    21 C    1.260     1 Zn   0.492
    23   6 C    3.932 --    24 C    1.356    21 C    1.355    36 H    0.964
    24   6 C    3.925 --    23 C    1.356    25 N    1.249     2 C    1.171
    25   7 N    3.467 --     4 C    1.283    24 C    1.249     1 Zn   0.489
    26   1 H    0.998 --     2 C    0.972
    27   1 H    0.998 --     3 C    0.969
    28   1 H    0.998 --     7 C    0.969
    29   1 H    0.998 --     8 C    0.972
    30   1 H    0.996 --    11 C    0.964
    31   1 H    0.998 --    13 C    0.972
    32   1 H    0.998 --    14 C    0.972
    33   1 H    0.996 --    17 C    0.964
    34   1 H    0.998 --    19 C    0.972
    35   1 H    0.998 --    20 C    0.972
    36   1 H    0.996 --    23 C    0.964
    37   6 C    3.926 --    38 C    2.583     5 C    1.165
    38   6 C    3.926 --    37 C    2.583    43 C    1.165
    39  30 Zn   2.082 --    54 N    0.492    60 N    0.492    63 N    0.489
                            48 N    0.489
    40   6 C    3.954 --    41 C    1.652    62 C    1.171    64 H    0.972
    41   6 C    3.958 --    40 C    1.652    42 C    1.178    65 H    0.969
    42   6 C    3.918 --    63 N    1.283    43 C    1.260    41 C    1.178
    43   6 C    3.942 --    44 C    1.260    42 C    1.260    38 C    1.165
    44   6 C    3.918 --    48 N    1.283    43 C    1.260    45 C    1.178
    45   6 C    3.958 --    46 C    1.652    44 C    1.178    66 H    0.969
    46   6 C    3.954 --    45 C    1.652    47 C    1.170    67 H    0.972
    47   6 C    3.925 --    49 C    1.356    48 N    1.249    46 C    1.170
    48   7 N    3.467 --    44 C    1.283    47 C    1.249    39 Zn   0.489
    49   6 C    3.932 --    47 C    1.356    50 C    1.355    68 H    0.964
    50   6 C    3.930 --    49 C    1.355    54 N    1.261    51 C    1.163
    51   6 C    3.957 --    52 C    1.666    50 C    1.163    69 H    0.972
    52   6 C    3.955 --    51 C    1.666    53 C    1.162    70 H    0.972
    53   6 C    3.932 --    55 C    1.354    54 N    1.263    52 C    1.162
    54   7 N    3.465 --    53 C    1.263    50 C    1.261    39 Zn   0.492
    55   6 C    3.928 --    53 C    1.354    56 C    1.354    71 H    0.964
    56   6 C    3.932 --    55 C    1.354    60 N    1.263    57 C    1.162
    57   6 C    3.955 --    58 C    1.666    56 C    1.162    72 H    0.972
    58   6 C    3.957 --    57 C    1.666    59 C    1.163    73 H    0.972
    59   6 C    3.930 --    61 C    1.355    60 N    1.260    58 C    1.163
    60   7 N    3.465 --    56 C    1.263    59 C    1.260    39 Zn   0.492
    61   6 C    3.932 --    62 C    1.356    59 C    1.355    74 H    0.964
    62   6 C    3.925 --    61 C    1.356    63 N    1.249    40 C    1.171
    63   7 N    3.467 --    42 C    1.283    62 C    1.249    39 Zn   0.489
    64   1 H    0.998 --    40 C    0.972
    65   1 H    0.998 --    41 C    0.969
    66   1 H    0.998 --    45 C    0.969
    67   1 H    0.998 --    46 C    0.972
    68   1 H    0.996 --    49 C    0.964
    69   1 H    0.998 --    51 C    0.972
    70   1 H    0.998 --    52 C    0.972
    71   1 H    0.996 --    55 C    0.964
    72   1 H    0.998 --    57 C    0.972
    73   1 H    0.998 --    58 C    0.972
    74   1 H    0.996 --    61 C    0.964
 ---------------------------------------------------------------------------

molecular dipole:
                 x           y           z       tot (Debye)
 q only:        0.000       0.001       0.000
   full:        0.000       0.002       0.000       0.006

 projected vibrational frequencies (cm⁻¹)
eigval :       -0.00    -0.00    -0.00     0.00     0.00     0.00
eigval :       11.00    11.44    12.23    31.74    41.85    46.49
eigval :       48.52    67.05    70.80    74.86    81.14    90.59
eigval :      123.57   127.98   133.10   139.16   166.52   168.07
eigval :      181.02   181.60   185.36   194.67   195.01   196.96
eigval :      197.05   198.70   198.79   199.85   202.65   203.33
eigval :      215.00   252.50   253.06   262.89   264.77   306.10
eigval :      321.80   322.08   323.51   337.75   339.12   353.70
eigval :      357.46   366.90   369.89   372.67   377.11   385.18
eigval :      386.66   395.88   398.00   398.98   426.09   427.65
eigval :      431.96   432.75   459.77   460.00   505.65   519.62
eigval :      603.36   624.16   626.35   628.15   628.70   631.41
eigval :      631.54   646.41   646.70   648.11   648.71   660.84
eigval :      661.01   663.36   663.39   674.04   677.26   721.14
eigval :      722.21   731.19   731.25   759.49   761.49   762.92
eigval :      766.00   775.86   776.38   780.42   781.31   793.26
eigval :      799.49   799.76   804.82   807.24   808.48   812.69
eigval :      814.76   819.87   821.83   829.25   830.46   836.26
eigval :      837.62   839.68   840.75   842.88   845.44   845.80
eigval :      846.94   847.79   848.23   853.00   854.96   891.45
eigval :      959.89   990.48   991.47  1003.07  1003.94  1020.46
eigval :     1024.31  1025.25  1026.14  1035.23  1036.48  1037.28
eigval :     1037.86  1044.98  1046.87  1062.85  1064.44  1067.83
eigval :     1068.21  1070.06  1071.54  1073.16  1075.10  1096.03
eigval :     1143.53  1155.55  1155.58  1163.64  1169.78  1176.04
eigval :     1177.74  1186.53  1223.97  1226.37  1239.09  1240.70
eigval :     1284.67  1287.65  1295.62  1300.98  1301.13  1303.33
eigval :     1317.45  1318.25  1333.58  1334.13  1342.88  1343.57
eigval :     1344.64  1348.93  1354.26  1366.90  1367.22  1367.31
eigval :     1371.12  1444.10  1449.05  1450.30  1459.28  1472.67
eigval :     1482.10  1496.59  1501.18  1507.85  1508.56  1515.11
eigval :     1517.00  1520.23  1527.13  1531.74  1532.29  1549.63
eigval :     1551.49  1555.87  1555.98  1564.71  1565.37  1599.30
eigval :     1599.63  2265.13  3077.50  3077.86  3078.07  3078.39
eigval :     3079.46  3079.85  3146.21  3146.28  3146.60  3146.65
eigval :     3151.00  3151.42  3151.46  3151.78  3159.92  3160.00
eigval :     3160.64  3161.25  3165.82  3166.49  3167.25  3168.02

   temp. (K)  partition function   enthalpy   heat capacity  entropy
                                   cal/mol     cal/K/mol   cal/K/mol   J/K/mol
 298.15  VIB  0.145E+18            23714.563    157.969    145.252
         ROT  0.646E+08              888.752      2.981     38.720
         INT  0.939E+25            24603.315    160.950    183.972
         TR   0.206E+29             1481.254      4.968     45.779
         TOT                       26084.5688   165.9177   229.7519   961.2821

       T/K    H(0)-H(T)+PV         H(T)/Eh          T*S/Eh         G(T)/Eh
   ------------------------------------------------------------------------
    298.15    0.415684E-01    0.560491E+00    0.109163E+00    0.451329E+00
   ------------------------------------------------------------------------

         :::::::::::::::::::::::::::::::::::::::::::::::::::::
         ::                  THERMODYNAMIC                  ::
         :::::::::::::::::::::::::::::::::::::::::::::::::::::
         :: total free energy        -125.329934514168 Eh   ::
         ::.................................................::
         :: total energy             -125.781263092976 Eh   ::
         :: zero point energy           0.518922736042 Eh   ::
         :: G(RRHO) w/o ZPVE           -0.067594157234 Eh   ::
         :: G(RRHO) contrib.            0.451328578808 Eh   ::
         :::::::::::::::::::::::::::::::::::::::::::::::::::::

           -------------------------------------------------
          | TOTAL ENERGY             -125.781263092976 Eh   |
          | TOTAL ENTHALPY           -125.220771950559 Eh   |
          | TOTAL FREE ENERGY        -125.329934514168 Eh   |
          | GRADIENT NORM               0.000362857547 Eh/α |
          | HOMO-LUMO GAP               1.278334655032 eV   |
           -------------------------------------------------

 * finished run on 2021/11/18 at 18:34:36.537
