   * xtb version 6.4.1 (bd6e46d) compiled by 'conda@4901f00b25ba' on 2021-06-10
          program call               : /home/jeff/miniconda3/bin/xtb input_structure_1.xyz --gfn 2 --ohess normal --parallel 1 --etemp 300 --chrg 0 --uhf 0 -I det_control.in
          number of atoms            :                   119
          number of electrons        :                   404
          charge                     :                     0
          spin                       :                   0.0

   ID    Z sym.   atoms
    1   26 Fe     1, 37, 85
    2    6 C      2-9, 11-15, 17-21, 23, 24, 38-45, 47-51, 53-57, 59, 60,
                  73-84, 86-93, 95-99, 101-105, 107, 108
    3    7 N      10, 16, 22, 25, 46, 52, 58, 61, 94, 100, 106, 109
    4    1 H      26-36, 62-72, 110-119

          :  Hamiltonian                  GFN2-xTB          :
 * total energy  :  -213.7082895 Eh     change       -0.1104274E-07 Eh
 * total energy  :  -214.0355084 Eh     change       -0.3272189E+00 Eh
 * total energy  :  -214.1688527 Eh     change       -0.1333443E+00 Eh
 * total energy  :  -214.2415728 Eh     change       -0.7272008E-01 Eh
 * total energy  :  -214.2893044 Eh     change       -0.4773164E-01 Eh
 * total energy  :  -214.3283813 Eh     change       -0.3907690E-01 Eh
 * total energy  :  -214.3584775 Eh     change       -0.3009614E-01 Eh
 * total energy  :  -214.3792371 Eh     change       -0.2075960E-01 Eh
 * total energy  :  -214.3932142 Eh     change       -0.1397716E-01 Eh
 * total energy  :  -214.4061792 Eh     change       -0.1296493E-01 Eh
 * total energy  :  -214.9018851 Eh     change       -0.3012018E-04 Eh
 * total energy  :  -214.9019156 Eh     change       -0.3050930E-04 Eh
 * total energy  :  -214.9019540 Eh     change       -0.3839283E-04 Eh
 * total energy  :  -214.9020020 Eh     change       -0.4803277E-04 Eh
 * total energy  :  -214.9020533 Eh     change       -0.5122917E-04 Eh
 * total energy  :  -214.9020912 Eh     change       -0.3793326E-04 Eh
 * total energy  :  -214.9021062 Eh     change       -0.1503799E-04 Eh
 * total energy  :  -214.9021126 Eh     change       -0.6367327E-05 Eh
 * total energy  :  -214.9021159 Eh     change       -0.3259927E-05 Eh
   *** GEOMETRY OPTIMIZATION CONVERGED AFTER 68 ITERATIONS ***

 final structure:
================
119
 xtb: 6.4.1 (bd6e46d)
Fe       11.74428194427895   -0.00254931257159   -0.00968974398161
C        14.24364211054917   -3.39199746613890    0.02666622109299
C        15.23549190462814   -2.47071549195620    0.01696503159021
C        14.59428603694170   -1.19173189298617    0.00092087122230
C        15.26984909963332    0.03260476293387   -0.01352912338178
C        14.57004205017050    1.24316176021787   -0.02160683834572
C        15.18566461941978    2.53472432677264   -0.02966958568565
C        14.17571266824914    3.43619607621890   -0.02622653189073
C        12.95091935467825    2.68926616379672   -0.01749605426415
N        13.21330420197262    1.34433354397763   -0.01573748799246
C        11.70907765857709    3.29372904162840   -0.01174875961587
C        10.48131221076030    2.66162935757884   -0.01069371592379
C         9.23787235606906    3.38156382821909   -0.01059860428173
C         8.25039823424473    2.45827835152351   -0.01839001123712
C         8.89346755842618    1.17630013381364   -0.02161709516138
N        10.25120930794266    1.31372579299884   -0.01585571955156
C         8.23580452823819   -0.03760948965579   -0.02914874332593
C         8.91756811739273   -1.23815910170770   -0.02432106599515
C         8.30028100905644   -2.53275892540928   -0.02508516302252
C         9.30595186544644   -3.43610620557059   -0.01040922619435
C        10.53467027528800   -2.69140142799532   -0.00221761807284
N        10.27775614697025   -1.34840285041191   -0.01188785013512
C        11.77473184122722   -3.29880163732033    0.01336514436044
C        13.00423574389288   -2.66966242080878    0.01514800861295
N        13.23984507542170   -1.31982301471287    0.00090375519462
H        14.32425713655237   -4.46177154495810    0.03975479217228
H        16.29767812656283   -2.62058748289656    0.02041479496859
H        16.24470149637539    2.70556412391913   -0.03612890339623
H        14.23499428304512    4.50745098913747   -0.02951368397667
H        11.69819595813486    4.37454906408674   -0.01033204168013
H         9.15619121196311    4.45154713818247   -0.00582381595240
H         7.18800731140766    2.60772847904224   -0.02123639454129
H         7.15692253039524   -0.04838153577571   -0.03665672977637
H         7.24114335896978   -2.70344975879846   -0.03483305873132
H         9.24571322803512   -4.50752201485680   -0.00567927476289
H        11.78543025872277   -4.37957712671172    0.02300430912392
Fe       44.10649334436557    0.02691550001753   -0.00721294776091
C        41.62008655846527    3.37130330355396    0.60066530961147
C        40.62476130750440    2.46839751480777    0.43730196313089
C        41.26110414331289    1.20772678063502    0.20702388115778
C        40.58085221352379    0.00552556751873   -0.01039063814407
C        41.27592182689936   -1.18881307464712   -0.22416326729970
C        40.65532968281097   -2.45759009389406   -0.45280060707195
C        41.66183597792176   -3.34906188336517   -0.61036207284840
C        42.88949807190549   -2.61882935619067   -0.47740253054989
N        42.63227676054971   -1.29377968233748   -0.24116218838273
C        44.12898348175318   -3.21915526706746   -0.58125739232170
C        45.35915547348093   -2.60144220804534   -0.47155614958932
C        46.59976421849793   -3.31521326795153   -0.59733614153639
C        47.59082018711389   -2.40901829730206   -0.44163492554501
C        46.95273159721132   -1.14371830687231   -0.22057031646272
N        45.59444787134996   -1.27443545022786   -0.24031422660498
C        47.61509909134199    0.05016278511839   -0.01547383143383
C        46.93796838966912    1.23482089486063    0.19477282919146
C        47.56027648226366    2.50785198048892    0.41646736666568
C        46.55807604201058    3.40005599325786    0.58131115260916
C        45.32643632317203    2.67029073322991    0.45910418107545
N        45.57817893709030    1.34731857166970    0.22215816326626
C        44.08869179076451    3.27171960377204    0.57409636946621
C        42.85676653653134    2.65632906928421    0.46825078829795
N        42.61605830209967    1.32892474558003    0.22788180957217
H        41.54357239351135    4.42408254753720    0.79266791200205
H        39.56311930377700    2.61946150422869    0.46648658247173
H        39.59567056731677   -2.62146035873241   -0.48441102785899
H        41.59843544644399   -4.40323501570234   -0.79952544903279
H        44.13568678972762   -4.28357097646823   -0.76901882060415
H        46.67724545356666   -4.36970572541085   -0.78066778226489
H        48.65262202242336   -2.56000169461102   -0.46966302706026
H        48.69403127879781    0.05742587134683   -0.01871057055326
H        48.62009551000350    2.67296316433809    0.43906168819222
H        46.62248382299036    4.45480426234825    0.76821831506145
H        44.08216933745132    4.33544904363905    0.76572124443537
C        16.66523604307020    0.04543373849498   -0.01580385356623
C        17.88476094997681    0.04647480514798   -0.01890418905386
C        19.22126034274852    0.05162239045962   -0.01790776894894
C        20.44518763664145    0.05166306843706   -0.01472480100038
C        21.78154352032702    0.05019088275893   -0.01122934583374
C        23.00119581538003    0.04445249815251   -0.00541313855942
C        32.84941887279346   -0.00747092947412   -0.01063256237520
C        34.06904715226269   -0.01445846857797   -0.01639555574190
C        35.40547264117997   -0.01474462158044   -0.01177579025971
C        36.62933387873845   -0.01650445521994   -0.02126682688958
C        37.96589016762351   -0.01126537692960   -0.01509889352371
C        39.18534495771741   -0.00210929267287   -0.01501245660531
Fe       27.92526125070539    0.01884572480485   -0.00429201746127
C        25.43996173511878   -3.36289827632021    0.35620204179809
C        24.44336327803414   -2.45140404407582    0.26180397528273
C        25.07813781937037   -1.17643123400391    0.12561969200571
C        24.39596440958155    0.03789746355792   -0.00361936041659
C        25.09101749058580    1.24492992400582   -0.13237818480806
C        24.46997882083200    2.52641060805748   -0.27060436399873
C        25.47633877960963    3.42698906133693   -0.36655529036836
C        26.70367665519631    2.68925618238671   -0.28586640436586
N        26.44669212997955    1.35064357368500   -0.14294119920982
C        27.94285993029241    3.29536013929651   -0.34774224424780
C        29.17543620976813    2.67652703520046   -0.28065150971828
C        30.41070000604428    3.40171064555308   -0.35434971355196
C        31.40727927744782    2.49023736961212   -0.25968005877658
C        30.77245063279824    1.21466127517772   -0.12933645573223
N        29.41800190940356    1.33477863972578   -0.14186394750691
C        31.45457496073386   -0.00064563403043   -0.00977369194522
C        30.75955843444793   -1.20839080481354    0.11174706141340
C        31.38061034248781   -2.49111230386601    0.23787456401779
C        30.37426101194036   -3.39159513717556    0.33491626784242
C        29.14692415574507   -2.65257813820299    0.26654451419898
N        29.40387142582313   -1.31341985164253    0.12886473802180
C        27.90775400525832   -3.25789586491725    0.33602408537729
C        26.67519519678903   -2.63825877219805    0.27679997553942
N        26.43258097252726   -1.29670453001155    0.13615716592947
H        25.36510434820611   -4.42726366302495    0.46842861925114
H        23.38194967077543   -2.60549914976834    0.27996905805729
H        23.41028423722455    2.69179040917953   -0.28945866579731
H        25.41293099680363    4.49182995535557   -0.48141559600169
H        27.94863199024755    4.37031187485633   -0.46118937678567
H        30.48560136869011    4.46629512445613   -0.46427602953408
H        32.46870202176020    2.64456941738745   -0.27511788414715
H        32.44033060658327   -2.65731318358858    0.24867092807266
H        30.43766051973138   -4.45720376372405    0.44241074994011
H        27.90198406360437   -4.33301232245379    0.44791200921341

          :  Hamiltonian                  GFN2-xTB          :
         :: gradient norm              0.000787373312 Eh/a0 ::
         :: HOMO-LUMO gap              0.235846348374 eV    ::
         :: SCC energy              -218.880975942770 Eh    ::
         :: -> dispersion             -0.164514605260 Eh    ::
         :: repulsion energy           3.981114070491 Eh    ::

    * Orbital Energies and Occupations

         #    Occupation            Energy/Eh            Energy/eV
      -------------------------------------------------------------
         1        2.0000           -0.6681868             -18.1823
       ...           ...                  ...                  ...
       190        2.0000           -0.3644790              -9.9180
       191        2.0000           -0.3644785              -9.9180
       192        2.0000           -0.3585676              -9.7571
       193        2.0000           -0.3498216              -9.5191
       194        2.0000           -0.3395666              -9.2401
       195        2.0000           -0.3393342              -9.2338
       196        2.0000           -0.3393141              -9.2332
       197        2.0000           -0.3381746              -9.2022
       198        2.0000           -0.3378752              -9.1941
       199        2.0000           -0.3378743              -9.1940
       200        1.9879           -0.3305167              -8.9938
       201        1.9787           -0.3299774              -8.9791
       202        1.9787           -0.3299772              -8.9791 (HOMO)
       203        0.0200           -0.3213088              -8.7433 (LUMO)
       204        0.0174           -0.3211766              -8.7397
       205        0.0174           -0.3211747              -8.7396
       206                         -0.3067358              -8.3467
       207                         -0.2973078              -8.0902
       208                         -0.2912123              -7.9243
       209                         -0.2905506              -7.9063
       210                         -0.2905501              -7.9063
       211                         -0.2896884              -7.8828
       212                         -0.2677802              -7.2867
       213                         -0.2575238              -7.0076
       ...                                ...                  ...
       395                          1.7211890              46.8359
      -------------------------------------------------------------
                  HL-Gap            0.0086685 Eh            0.2359 eV

     #   Z          covCN         q      C6AA      α(0)
     1  26 Fe       3.083     0.561     5.147     7.318
     2   6 C        3.027    -0.054    29.315     8.881
     3   6 C        3.013    -0.054    29.329     8.884
     4   6 C        3.185     0.070    25.992     8.320
     5   6 C        2.955     0.010    27.794     8.647
     6   6 C        3.184     0.070    25.993     8.320
     7   6 C        3.013    -0.054    29.327     8.883
     8   6 C        3.027    -0.054    29.315     8.881
     9   6 C        3.160     0.064    26.253     8.376
    10   7 N        2.636    -0.214    25.679     7.526
    11   6 C        2.903    -0.060    29.496     8.905
    12   6 C        3.155     0.066    26.246     8.377
    13   6 C        3.023    -0.053    29.299     8.879
    14   6 C        3.013    -0.055    29.347     8.886
    15   6 C        3.166     0.070    26.092     8.347
    16   7 N        2.638    -0.213    25.638     7.520
    17   6 C        2.903    -0.059    29.465     8.900
    18   6 C        3.166     0.070    26.092     8.347
    19   6 C        3.013    -0.055    29.347     8.886
    20   6 C        3.023    -0.053    29.299     8.879
    21   6 C        3.155     0.066    26.246     8.377
    22   7 N        2.638    -0.213    25.638     7.520
    23   6 C        2.903    -0.060    29.496     8.905
    24   6 C        3.160     0.064    26.253     8.376
    25   7 N        2.636    -0.214    25.677     7.526
    26   1 H        0.926     0.030     2.581     2.512
    27   1 H        0.926     0.033     2.545     2.494
    28   1 H        0.926     0.033     2.545     2.495
    29   1 H        0.926     0.030     2.581     2.512
    30   1 H        0.926     0.049     2.327     2.386
    31   1 H        0.926     0.031     2.575     2.509
    32   1 H        0.926     0.031     2.570     2.507
    33   1 H        0.926     0.047     2.352     2.398
    34   1 H        0.926     0.031     2.570     2.507
    35   1 H        0.926     0.031     2.575     2.509
    36   1 H        0.926     0.049     2.327     2.385
    37  26 Fe       3.083     0.561     5.147     7.318
    38   6 C        3.027    -0.054    29.315     8.881
    39   6 C        3.013    -0.054    29.328     8.883
    40   6 C        3.185     0.070    25.993     8.320
    41   6 C        2.955     0.010    27.794     8.647
    42   6 C        3.185     0.070    25.992     8.320
    43   6 C        3.013    -0.054    29.328     8.883
    44   6 C        3.027    -0.054    29.315     8.881
    45   6 C        3.160     0.064    26.253     8.376
    46   7 N        2.636    -0.214    25.678     7.526
    47   6 C        2.903    -0.060    29.496     8.905
    48   6 C        3.155     0.066    26.246     8.377
    49   6 C        3.023    -0.053    29.299     8.879
    50   6 C        3.013    -0.055    29.347     8.886
    51   6 C        3.166     0.070    26.092     8.347
    52   7 N        2.638    -0.213    25.638     7.520
    53   6 C        2.903    -0.059    29.465     8.900
    54   6 C        3.166     0.070    26.092     8.347
    55   6 C        3.013    -0.055    29.347     8.886
    56   6 C        3.023    -0.053    29.299     8.879
    57   6 C        3.155     0.066    26.246     8.377
    58   7 N        2.638    -0.213    25.638     7.520
    59   6 C        2.903    -0.060    29.496     8.905
    60   6 C        3.160     0.064    26.253     8.376
    61   7 N        2.636    -0.214    25.678     7.526
    62   1 H        0.926     0.030     2.581     2.512
    63   1 H        0.926     0.033     2.545     2.495
    64   1 H        0.926     0.033     2.545     2.495
    65   1 H        0.926     0.030     2.581     2.512
    66   1 H        0.926     0.049     2.327     2.386
    67   1 H        0.926     0.031     2.575     2.509
    68   1 H        0.926     0.031     2.570     2.507
    69   1 H        0.926     0.047     2.352     2.398
    70   1 H        0.926     0.031     2.570     2.507
    71   1 H        0.926     0.031     2.575     2.509
    72   1 H        0.926     0.049     2.327     2.386
    73   6 C        1.991    -0.021    31.604     9.079
    74   6 C        1.963    -0.012    31.388     9.047
    75   6 C        1.965    -0.004    31.167     9.016
    76   6 C        1.965    -0.004    31.172     9.016
    77   6 C        1.963    -0.012    31.382     9.047
    78   6 C        1.991    -0.021    31.610     9.080
    79   6 C        1.991    -0.021    31.609     9.079
    80   6 C        1.963    -0.012    31.382     9.047
    81   6 C        1.965    -0.004    31.171     9.016
    82   6 C        1.965    -0.004    31.166     9.015
    83   6 C        1.963    -0.012    31.387     9.047
    84   6 C        1.991    -0.021    31.603     9.079
    85  26 Fe       3.077     0.563     5.145     7.317
    86   6 C        3.027    -0.054    29.313     8.881
    87   6 C        3.014    -0.054    29.329     8.884
    88   6 C        3.185     0.071    25.980     8.317
    89   6 C        2.955     0.010    27.795     8.647
    90   6 C        3.185     0.071    25.981     8.318
    91   6 C        3.014    -0.054    29.329     8.884
    92   6 C        3.027    -0.054    29.313     8.881
    93   6 C        3.161     0.064    26.253     8.376
    94   7 N        2.636    -0.215    25.704     7.530
    95   6 C        2.903    -0.058    29.452     8.898
    96   6 C        3.161     0.064    26.253     8.376
    97   6 C        3.027    -0.054    29.313     8.881
    98   6 C        3.014    -0.054    29.329     8.884
    99   6 C        3.185     0.071    25.980     8.317
   100   7 N        2.636    -0.215    25.704     7.530
   101   6 C        2.955     0.010    27.795     8.647
   102   6 C        3.185     0.071    25.981     8.317
   103   6 C        3.014    -0.054    29.329     8.884
   104   6 C        3.027    -0.054    29.313     8.881
   105   6 C        3.161     0.064    26.253     8.376
   106   7 N        2.636    -0.215    25.704     7.530
   107   6 C        2.903    -0.058    29.452     8.898
   108   6 C        3.161     0.064    26.253     8.376
   109   7 N        2.636    -0.215    25.703     7.530
   110   1 H        0.926     0.030     2.582     2.513
   111   1 H        0.926     0.033     2.547     2.496
   112   1 H        0.926     0.033     2.547     2.496
   113   1 H        0.926     0.030     2.582     2.513
   114   1 H        0.926     0.050     2.321     2.382
   115   1 H        0.926     0.030     2.582     2.513
   116   1 H        0.926     0.033     2.547     2.496
   117   1 H        0.926     0.033     2.547     2.496
   118   1 H        0.926     0.030     2.582     2.513
   119   1 H        0.926     0.050     2.321     2.382

Wiberg/Mayer (AO) data.
largest (>0.10) Wiberg bond orders for each atom

     #   Z sym  total        # sym  WBO       # sym  WBO       # sym  WBO
 ---------------------------------------------------------------------------
     1  26 Fe   3.279 --    16 N    0.660    22 N    0.660    10 N    0.657
                            25 N    0.657
     2   6 C    3.957 --     3 C    1.644    24 C    1.171    26 H    0.972
     3   6 C    3.962 --     2 C    1.644     4 C    1.182    27 H    0.971
     4   6 C    3.921 --    25 N    1.258     5 C    1.255     3 C    1.182
     5   6 C    3.951 --     6 C    1.255     4 C    1.255    73 C    1.186
     6   6 C    3.921 --    10 N    1.257     5 C    1.255     7 C    1.182
     7   6 C    3.962 --     8 C    1.644     6 C    1.182    28 H    0.971
     8   6 C    3.957 --     7 C    1.644     9 C    1.171    29 H    0.972
     9   6 C    3.937 --    11 C    1.361    10 N    1.216     8 C    1.171
    10   7 N    3.416 --     6 C    1.257     9 C    1.216     1 Fe   0.657
    11   6 C    3.943 --     9 C    1.361    12 C    1.361    30 H    0.963
    12   6 C    3.942 --    11 C    1.361    16 N    1.227    13 C    1.163
    13   6 C    3.962 --    14 C    1.660    12 C    1.163    31 H    0.972
    14   6 C    3.960 --    13 C    1.660    15 C    1.164    32 H    0.972
    15   6 C    3.944 --    17 C    1.358    16 N    1.239    14 C    1.164
    16   7 N    3.412 --    15 C    1.239    12 C    1.227     1 Fe   0.660
    17   6 C    3.939 --    18 C    1.358    15 C    1.358    33 H    0.965
    18   6 C    3.944 --    17 C    1.358    22 N    1.239    19 C    1.164
    19   6 C    3.960 --    20 C    1.660    18 C    1.164    34 H    0.972
    20   6 C    3.962 --    19 C    1.660    21 C    1.163    35 H    0.972
    21   6 C    3.942 --    23 C    1.361    22 N    1.227    20 C    1.163
    22   7 N    3.412 --    18 C    1.239    21 C    1.227     1 Fe   0.660
    23   6 C    3.943 --    24 C    1.361    21 C    1.361    36 H    0.963
    24   6 C    3.937 --    23 C    1.361    25 N    1.216     2 C    1.171
    25   7 N    3.416 --     4 C    1.258    24 C    1.216     1 Fe   0.657
    26   1 H    0.998 --     2 C    0.972
    27   1 H    0.998 --     3 C    0.971
    28   1 H    0.998 --     7 C    0.971
    29   1 H    0.998 --     8 C    0.972
    30   1 H    0.996 --    11 C    0.963
    31   1 H    0.998 --    13 C    0.972
    32   1 H    0.998 --    14 C    0.972
    33   1 H    0.997 --    17 C    0.965
    34   1 H    0.998 --    19 C    0.972
    35   1 H    0.998 --    20 C    0.972
    36   1 H    0.996 --    23 C    0.963
    37  26 Fe   3.279 --    52 N    0.660    58 N    0.660    61 N    0.657
                            46 N    0.657
    38   6 C    3.957 --    39 C    1.644    60 C    1.171    62 H    0.972
    39   6 C    3.962 --    38 C    1.644    40 C    1.182    63 H    0.971
    40   6 C    3.921 --    61 N    1.257    41 C    1.255    39 C    1.182
    41   6 C    3.951 --    40 C    1.255    42 C    1.255    84 C    1.186
    42   6 C    3.921 --    46 N    1.257    41 C    1.255    43 C    1.182
    43   6 C    3.962 --    44 C    1.644    42 C    1.182    64 H    0.971
    44   6 C    3.957 --    43 C    1.644    45 C    1.171    65 H    0.972
    45   6 C    3.937 --    47 C    1.361    46 N    1.216    44 C    1.171
    46   7 N    3.416 --    42 C    1.257    45 C    1.216    37 Fe   0.657
    47   6 C    3.943 --    45 C    1.361    48 C    1.361    66 H    0.963
    48   6 C    3.942 --    47 C    1.361    52 N    1.227    49 C    1.163
    49   6 C    3.962 --    50 C    1.660    48 C    1.163    67 H    0.972
    50   6 C    3.960 --    49 C    1.660    51 C    1.164    68 H    0.972
    51   6 C    3.944 --    53 C    1.358    52 N    1.239    50 C    1.164
    52   7 N    3.412 --    51 C    1.239    48 C    1.227    37 Fe   0.660
    53   6 C    3.939 --    54 C    1.358    51 C    1.358    69 H    0.965
    54   6 C    3.944 --    53 C    1.358    58 N    1.239    55 C    1.164
    55   6 C    3.960 --    56 C    1.660    54 C    1.164    70 H    0.972
    56   6 C    3.962 --    55 C    1.660    57 C    1.163    71 H    0.972
    57   6 C    3.942 --    59 C    1.361    58 N    1.227    56 C    1.163
    58   7 N    3.412 --    54 C    1.239    57 C    1.227    37 Fe   0.660
    59   6 C    3.943 --    60 C    1.361    57 C    1.361    72 H    0.963
    60   6 C    3.937 --    59 C    1.361    61 N    1.216    38 C    1.171
    61   7 N    3.416 --    40 C    1.257    60 C    1.216    37 Fe   0.657
    62   1 H    0.998 --    38 C    0.972
    63   1 H    0.998 --    39 C    0.971
    64   1 H    0.998 --    43 C    0.971
    65   1 H    0.998 --    44 C    0.972
    66   1 H    0.996 --    47 C    0.963
    67   1 H    0.998 --    49 C    0.972
    68   1 H    0.998 --    50 C    0.972
    69   1 H    0.997 --    53 C    0.965
    70   1 H    0.998 --    55 C    0.972
    71   1 H    0.998 --    56 C    0.972
    72   1 H    0.996 --    59 C    0.963
    73   6 C    3.884 --    74 C    2.447     5 C    1.186    76 C    0.193
    74   6 C    3.930 --    73 C    2.447    75 C    1.329
    75   6 C    3.920 --    76 C    2.361    74 C    1.329    78 C    0.193
    76   6 C    3.921 --    75 C    2.361    77 C    1.330    73 C    0.193
    77   6 C    3.928 --    78 C    2.445    76 C    1.330
    78   6 C    3.885 --    77 C    2.445    89 C    1.188    75 C    0.193
    79   6 C    3.885 --    80 C    2.445   101 C    1.188    82 C    0.193
    80   6 C    3.928 --    79 C    2.445    81 C    1.330
    81   6 C    3.921 --    82 C    2.362    80 C    1.330    84 C    0.193
    82   6 C    3.920 --    81 C    2.362    83 C    1.329    79 C    0.193
    83   6 C    3.930 --    84 C    2.447    82 C    1.329
    84   6 C    3.884 --    83 C    2.447    41 C    1.186    81 C    0.193
    85  26 Fe   3.245 --   109 N    0.652   100 N    0.652   106 N    0.652
                            94 N    0.652
    86   6 C    3.957 --    87 C    1.643   108 C    1.172   110 H    0.972
    87   6 C    3.961 --    86 C    1.643    88 C    1.183   111 H    0.971
    88   6 C    3.922 --   109 N    1.260    89 C    1.252    87 C    1.183
    89   6 C    3.942 --    90 C    1.252    88 C    1.252    78 C    1.188
    90   6 C    3.922 --    94 N    1.260    89 C    1.252    91 C    1.183
    91   6 C    3.961 --    92 C    1.643    90 C    1.183   112 H    0.971
    92   6 C    3.957 --    91 C    1.643    93 C    1.172   113 H    0.972
    93   6 C    3.936 --    95 C    1.361    94 N    1.215    92 C    1.172
    94   7 N    3.407 --    90 C    1.260    93 C    1.215    85 Fe   0.652
    95   6 C    3.937 --    96 C    1.361    93 C    1.361   114 H    0.963
    96   6 C    3.936 --    95 C    1.361   100 N    1.215    97 C    1.172
    97   6 C    3.957 --    98 C    1.643    96 C    1.172   115 H    0.972
    98   6 C    3.961 --    97 C    1.643    99 C    1.183   116 H    0.971
    99   6 C    3.922 --   100 N    1.260   101 C    1.253    98 C    1.183
   100   7 N    3.407 --    99 C    1.260    96 C    1.215    85 Fe   0.652
   101   6 C    3.942 --   102 C    1.253    99 C    1.253    79 C    1.188
   102   6 C    3.922 --   106 N    1.260   101 C    1.253   103 C    1.183
   103   6 C    3.961 --   104 C    1.643   102 C    1.183   117 H    0.971
   104   6 C    3.957 --   103 C    1.643   105 C    1.172   118 H    0.972
   105   6 C    3.936 --   107 C    1.361   106 N    1.215   104 C    1.172
   106   7 N    3.407 --   102 C    1.260   105 C    1.215    85 Fe   0.652
   107   6 C    3.937 --   108 C    1.361   105 C    1.361   119 H    0.963
   108   6 C    3.936 --   107 C    1.361   109 N    1.215    86 C    1.172
   109   7 N    3.407 --    88 C    1.260   108 C    1.215    85 Fe   0.652
   110   1 H    0.998 --    86 C    0.972
   111   1 H    0.998 --    87 C    0.971
   112   1 H    0.998 --    91 C    0.971
   113   1 H    0.998 --    92 C    0.972
   114   1 H    0.996 --    95 C    0.963
   115   1 H    0.998 --    97 C    0.972
   116   1 H    0.998 --    98 C    0.971
   117   1 H    0.998 --   103 C    0.971
   118   1 H    0.998 --   104 C    0.972
   119   1 H    0.996 --   107 C    0.963
 ---------------------------------------------------------------------------

molecular dipole:
                 x           y           z       tot (Debye)
 q only:        0.001      -0.001       0.003
   full:        0.001      -0.002       0.004       0.011

 projected vibrational frequencies (cm⁻¹)
eigval :       -0.00    -0.00    -0.00    -0.00     0.00     0.00
eigval :       -1.88     0.73     1.18     2.24     6.73     7.07
eigval :       10.83    17.93    19.11    25.94    28.18    29.82
eigval :       30.96    31.06    39.91    48.96    51.38    69.62
eigval :       82.18    85.20    90.08    93.22    93.33    95.67
eigval :       96.19   110.06   124.67   124.68   126.07   126.09
eigval :      135.32   162.55   169.35   175.88   177.23   179.52
eigval :      184.46   185.09   187.07   200.51   207.46   210.04
eigval :      210.63   220.53   223.69   223.85   224.12   225.11
eigval :      226.22   226.45   228.01   234.88   241.32   246.55
eigval :      247.63   247.64   254.12   255.69   255.81   272.13
eigval :      275.74   279.50   280.30   288.82   300.20   307.07
eigval :      308.49   315.11   315.49   315.76   318.79   329.16
eigval :      329.93   345.09   345.14   348.37   349.38   349.45
eigval :      353.34   353.60   357.01   357.14   361.47   361.60
eigval :      365.36   382.73   383.00   387.00   387.02   388.53
eigval :      392.13   392.29   393.57   394.47   394.49   405.00
eigval :      406.27   428.70   428.71   431.59   432.10   432.92
eigval :      433.72   448.65   454.88   454.91   459.71   479.15
eigval :      502.52   504.37   507.12   507.22   508.80   617.26
eigval :      619.32   619.35   621.09   623.28   623.30   625.15
eigval :      625.15   629.41   634.25   638.35   638.36   640.02
eigval :      640.03   645.41   652.75   653.42   653.43   662.78
eigval :      662.79   669.67   670.02   670.09   670.37   702.55
eigval :      709.04   719.09   719.12   723.83   726.12   752.30
eigval :      753.92   753.96   755.47   762.11   766.80   772.37
eigval :      772.80   776.98   776.99   781.13   781.17   795.66
eigval :      796.48   796.60   797.20   798.02   798.04   802.72
eigval :      805.04   805.12   805.17   809.38   809.41   814.35
eigval :      815.90   816.27   816.30   826.26   826.28   836.00
eigval :      836.04   836.76   837.52   837.55   837.74   840.67
eigval :      840.69   841.25   842.32   842.53   842.55   844.00
eigval :      844.04   844.06   844.08   844.34   844.37   896.34
eigval :      896.98   959.65   960.12   982.30   983.48   987.81
eigval :      987.86   991.26   994.03  1012.70  1014.29  1016.91
eigval :     1016.94  1020.50  1023.47  1023.49  1026.36  1030.83
eigval :     1037.22  1037.28  1038.75  1039.04  1039.33  1066.30
eigval :     1066.31  1068.30  1068.47  1068.62  1069.73  1070.89
eigval :     1071.18  1071.24  1071.54  1071.64  1072.58  1084.01
eigval :     1089.29  1138.32  1142.53  1142.58  1147.63  1162.36
eigval :     1169.00  1169.43  1177.02  1177.06  1177.15  1181.07
eigval :     1208.71  1222.37  1222.43  1252.52  1252.86  1254.15
eigval :     1268.01  1276.42  1280.88  1282.98  1282.99  1300.18
eigval :     1302.31  1302.41  1308.52  1312.37  1314.02  1314.12
eigval :     1314.13  1318.24  1318.97  1319.29  1322.30  1322.35
eigval :     1333.83  1333.88  1338.63  1340.33  1346.26  1346.87
eigval :     1356.69  1356.70  1358.62  1361.22  1362.59  1432.83
eigval :     1433.09  1452.71  1458.48  1458.49  1471.90  1472.58
eigval :     1483.88  1483.92  1487.13  1488.14  1491.83  1493.10
eigval :     1493.10  1500.04  1507.66  1515.96  1520.09  1522.76
eigval :     1522.82  1524.19  1526.05  1533.28  1535.30  1539.44
eigval :     1539.50  1546.71  1548.24  1554.57  1554.67  1569.57
eigval :     1569.60  1583.65  1583.87  1584.96  1599.66  1605.32
eigval :     1605.34  2163.57  2167.23  2206.25  2206.34  2267.33
eigval :     2268.06  3077.78  3078.19  3078.39  3078.40  3078.46
eigval :     3078.47  3096.89  3097.02  3146.75  3146.76  3147.05
eigval :     3147.06  3150.51  3150.54  3150.69  3150.71  3150.79
eigval :     3150.82  3151.08  3151.24  3160.94  3160.98  3161.37
eigval :     3161.53  3165.16  3165.37  3165.39  3165.52  3165.86
eigval :     3165.94  3166.04  3166.31

   temp. (K)  partition function   enthalpy   heat capacity  entropy
                                   cal/mol     cal/K/mol   cal/K/mol   J/K/mol
 298.15  VIB  0.658E+36            42203.907    272.819    266.799
         ROT  0.117E+10              888.752      2.981     44.471
         INT  0.768E+45            43092.659    275.800    311.270
         TR   0.419E+29             1481.254      4.968     47.184
         TOT                       44573.9132   280.7678   358.4534  1499.7692

       T/K    H(0)-H(T)+PV         H(T)/Eh          T*S/Eh         G(T)/Eh
   ------------------------------------------------------------------------
    298.15    0.710331E-01    0.882163E+00    0.170313E+00    0.711851E+00
   ------------------------------------------------------------------------

         :::::::::::::::::::::::::::::::::::::::::::::::::::::
         ::                  THERMODYNAMIC                  ::
         :::::::::::::::::::::::::::::::::::::::::::::::::::::
         :: total free energy        -214.190265195816 Eh   ::
         ::.................................................::
         :: total energy             -214.902115856199 Eh   ::
         :: zero point energy           0.811130402162 Eh   ::
         :: G(RRHO) w/o ZPVE           -0.099279741780 Eh   ::
         :: G(RRHO) contrib.            0.711850660382 Eh   ::
         :::::::::::::::::::::::::::::::::::::::::::::::::::::

           -------------------------------------------------
          | TOTAL ENERGY             -214.902115856199 Eh   |
          | TOTAL ENTHALPY           -214.019952401974 Eh   |
          | TOTAL FREE ENERGY        -214.190265195816 Eh   |
          | GRADIENT NORM               0.000787343567 Eh/α |
          | HOMO-LUMO GAP               0.235880775205 eV   |
           -------------------------------------------------

 * finished run on 2021/11/19 at 11:45:06.151
