   * xtb version 6.4.1 (bd6e46d) compiled by 'conda@4901f00b25ba' on 2021-06-10
          program call               : /home/jeff/miniconda3/bin/xtb input_structure_1.xyz --gfn 2 --ohess normal --parallel 1 --etemp 300 --chrg 0 --uhf 0 -I det_control.in
          number of atoms            :                    76
          number of electrons        :                   258
          charge                     :                     0
          spin                       :                   0.0

   ID    Z sym.   atoms
    1   28 Ni     1, 41
    2    6 C      2-9, 11-15, 17-21, 23, 24, 37-40, 42-49, 51-55, 57-61, 63,
                  64
    3    7 N      10, 16, 22, 25, 50, 56, 62, 65
    4    1 H      26-36, 66-76

          :  Hamiltonian                  GFN2-xTB          :
 * total energy  :  -136.8395859 Eh     change        0.1475655E-09 Eh
 * total energy  :  -138.0087723 Eh     change       -0.1169186E+01 Eh
 * total energy  :  -138.1943775 Eh     change       -0.1856052E+00 Eh
 * total energy  :  -138.3027544 Eh     change       -0.1083768E+00 Eh
 * total energy  :  -138.3676784 Eh     change       -0.6492401E-01 Eh
 * total energy  :  -138.4094935 Eh     change       -0.4181515E-01 Eh
 * total energy  :  -138.4378073 Eh     change       -0.2831376E-01 Eh
 * total energy  :  -138.4573467 Eh     change       -0.1953945E-01 Eh
 * total energy  :  -138.4708954 Eh     change       -0.1354864E-01 Eh
 * total energy  :  -138.4809074 Eh     change       -0.1001206E-01 Eh
 * total energy  :  -138.5313722 Eh     change       -0.9836218E-05 Eh
 * total energy  :  -138.5313709 Eh     change        0.1326826E-05 Eh
 * total energy  :  -138.5313808 Eh     change       -0.9947456E-05 Eh
 * total energy  :  -138.5313879 Eh     change       -0.7051577E-05 Eh
 * total energy  :  -138.5313942 Eh     change       -0.6308247E-05 Eh
 * total energy  :  -138.5314071 Eh     change       -0.1294631E-04 Eh
 * total energy  :  -138.5314201 Eh     change       -0.1292932E-04 Eh
 * total energy  :  -138.5314278 Eh     change       -0.7748165E-05 Eh
 * total energy  :  -138.5314318 Eh     change       -0.3997834E-05 Eh
   *** GEOMETRY OPTIMIZATION CONVERGED AFTER 51 ITERATIONS ***

 final structure:
================
76
 xtb: 6.4.1 (bd6e46d)
Ni        7.94091963265095   -0.05351767615911    0.01642508746395
C        10.41328655790618   -3.48502364557113    0.06846609358463
C        11.37211334064118   -2.53203792513966    0.09492318004423
C        10.69281244778834   -1.27161677818454    0.07580014977049
C        11.36827545511596   -0.04773291228035    0.08407384189895
C        10.68870392689773    1.17386565281732    0.06394021813813
C        11.36418671361297    2.43652519535354    0.06766211659453
C        10.40200110529528    3.38638837279826    0.05334733344712
C         9.14661800188691    2.69705950298189    0.04134215720001
N         9.33743572614544    1.34088239068632    0.04508909734756
C         7.93072983982768    3.34877368029777    0.03420809243140
C         6.71856296537356    2.69048057888665    0.01994066874121
C         5.45583078028467    3.37158071113935    0.01268942758354
C         4.50241460745867    2.41542968880008   -0.01190679366945
C         5.18683638925635    1.15416194096243   -0.01928642011085
N         6.54002803535751    1.33631806953914    0.00293275029137
C         4.53087446042377   -0.05952225351067   -0.05024398980775
C         5.19139241462133   -1.27111171694298   -0.05487644251326
C         4.51205903392686   -2.53472210525538   -0.08711024399059
C         5.46901455183571   -3.48758028234289   -0.07426864129850
C         6.72876791850668   -2.80215637768916   -0.03415340257835
N         6.54498539580659   -1.44860416974853   -0.02469467659117
C         7.94307821830029   -3.45587771103806   -0.00440922408492
C         9.15603387619986   -2.79977136212601    0.03450188955041
N         9.34225911343147   -1.44306398526697    0.04161629797983
H        10.52371725010290   -4.55197029164994    0.07084750385031
H        12.43835198606587   -2.64516105464481    0.12349157157236
H        12.43035017008894    2.55333157215661    0.07936679808971
H        10.50910302367596    4.45368586466897    0.05104307755343
H         7.92904517817099    4.42804892696931    0.03963140866062
H         5.34254142427520    4.43838065498039    0.02478569659368
H         3.43532722025372    2.52572998788020   -0.02465129859435
H         3.45194275119624   -0.06112597085113   -0.07162965133890
H         3.44564819004767   -2.64878813554174   -0.11494171684905
H         5.35989863299226   -4.55476630355668   -0.08910164404548
H         7.94579584017917   -4.53515186014132   -0.01142042644338
C        12.76581652877791   -0.04420017606358    0.11067067660868
C        13.98311298580576   -0.04354951940060    0.13553611954473
C        15.32553852410996   -0.03190425853403    0.15273453142454
C        16.54298056145514   -0.02288848160542    0.17099928845385
Ni       21.35550972804272    0.05601838476625   -0.02360033508086
C        18.85834164315165    3.44284779797644    0.34770533069083
C        17.90817315401382    2.48178105985155    0.29695728328484
C        18.59900488978478    1.23286796099681    0.18166895409059
C        17.94029619620859   -0.00069173593335    0.16678574790069
C        18.64019916610529   -1.21108111177257    0.18752875424179
C        17.99190134006968   -2.48169393021329    0.31233200357422
C        18.97362852571892   -3.41075565156900    0.35818841483091
C        20.21290885700959   -2.70341301587397    0.23401768311369
N        19.99327275446781   -1.35497505275934    0.14054748395114
C        21.43744703631784   -3.33496317653268    0.15627154741289
C        22.61952641792537   -2.66315544954358   -0.07962784249984
C        23.87582873610325   -3.32651189966429   -0.27988657808754
C        24.78467040086338   -2.36140529745803   -0.53902629700165
C        24.08511409039011   -1.11024948252265   -0.47115908756757
N        22.76211677696442   -1.30998373343404   -0.19849548962731
C        24.70870201771939    0.11344015904361   -0.60922399824209
C        24.05017022233255    1.31422595410685   -0.43607110063829
C        24.71308960972589    2.58657258985326   -0.46577184249483
C        23.77188430265408    3.51860351376929   -0.20123049829088
C        22.53313538968182    2.81420149735126   -0.03455805499608
N        22.71888627920896    1.46825726272490   -0.17481826836316
C        21.32630350911917    3.44658261524165    0.18388092532785
C        20.12125499791115    2.77632806968660    0.23752934548691
N        19.94681799965145    1.42139804416473    0.14321283689647
H        18.73750546833610    4.50479950312111    0.43861552046882
H        16.84134456161802    2.58215010720885    0.34428775509189
H        16.92925753113931   -2.61683776956959    0.36780375547828
H        18.88877587115634   -4.47583329879098    0.45313537315933
H        21.46521350641389   -4.41047691910065    0.24190181712590
H        24.01429717348631   -4.38945089738682   -0.23456365767631
H        25.83262307929682   -2.45926755618824   -0.74701901460522
H        25.76647038226928    0.13172664371335   -0.82219589329806
H        25.76075302564961    2.71989292694219   -0.65461135405047
H        23.87751863855873    4.58399110665871   -0.13171708437289
H        21.31846594521690    4.52186894344669    0.27636336226639

          :  Hamiltonian                  GFN2-xTB          :
         :: gradient norm              0.000446218083 Eh/a0 ::
         :: HOMO-LUMO gap              1.303399917501 eV    ::
         :: SCC energy              -140.911444972711 Eh    ::
         :: -> dispersion             -0.119762818481 Eh    ::
         :: repulsion energy           2.381293160251 Eh    ::

    * Orbital Energies and Occupations

         #    Occupation            Energy/Eh            Energy/eV
      -------------------------------------------------------------
         1        2.0000           -0.6750913             -18.3702
       ...           ...                  ...                  ...
       117        2.0000           -0.3908382             -10.6352
       118        2.0000           -0.3738560             -10.1731
       119        2.0000           -0.3735402             -10.1645
       120        2.0000           -0.3718676             -10.1190
       121        2.0000           -0.3707593             -10.0889
       122        2.0000           -0.3706844             -10.0868
       123        2.0000           -0.3664178              -9.9707
       124        2.0000           -0.3664086              -9.9705
       125        2.0000           -0.3663415              -9.9687
       126        2.0000           -0.3663277              -9.9683
       127        2.0000           -0.3605026              -9.8098
       128        2.0000           -0.3604087              -9.8072
       129        2.0000           -0.3574756              -9.7274 (HOMO)
       130                         -0.3095765              -8.4240 (LUMO)
       131                         -0.2986551              -8.1268
       132                         -0.2986323              -8.1262
       133                         -0.2977504              -8.1022
       134                         -0.2962732              -8.0620
       135                         -0.2946459              -8.0177
       136                         -0.2650327              -7.2119
       137                         -0.2561797              -6.9710
       138                         -0.2279216              -6.2021
       139                         -0.2076981              -5.6518
       140                         -0.1930649              -5.2536
       ...                                ...                  ...
       248                          1.6339378              44.4617
      -------------------------------------------------------------
                  HL-Gap            0.0478991 Eh            1.3034 eV

     #   Z          covCN         q      C6AA      α(0)
     1  28 Ni       3.021    -0.292   189.393    28.396
     2   6 C        3.024    -0.052    29.270     8.874
     3   6 C        3.021    -0.050    29.227     8.868
     4   6 C        3.185     0.073    25.922     8.308
     5   6 C        2.956     0.026    27.430     8.590
     6   6 C        3.186     0.074    25.920     8.308
     7   6 C        3.021    -0.050    29.227     8.868
     8   6 C        3.024    -0.052    29.270     8.874
     9   6 C        3.172     0.073    26.007     8.331
    10   7 N        2.625    -0.048    22.176     6.994
    11   6 C        2.904    -0.042    29.031     8.835
    12   6 C        3.168     0.074    26.000     8.331
    13   6 C        3.020    -0.051    29.249     8.871
    14   6 C        3.021    -0.051    29.251     8.872
    15   6 C        3.168     0.075    25.993     8.330
    16   7 N        2.625    -0.047    22.159     6.991
    17   6 C        2.904    -0.043    29.075     8.841
    18   6 C        3.168     0.075    25.993     8.330
    19   6 C        3.021    -0.051    29.251     8.872
    20   6 C        3.020    -0.051    29.249     8.871
    21   6 C        3.168     0.074    26.000     8.331
    22   7 N        2.625    -0.047    22.161     6.992
    23   6 C        2.904    -0.042    29.031     8.835
    24   6 C        3.171     0.073    26.007     8.331
    25   7 N        2.625    -0.048    22.177     6.994
    26   1 H        0.926     0.035     2.514     2.480
    27   1 H        0.926     0.037     2.486     2.466
    28   1 H        0.926     0.037     2.487     2.466
    29   1 H        0.926     0.035     2.514     2.480
    30   1 H        0.926     0.049     2.333     2.388
    31   1 H        0.926     0.036     2.507     2.476
    32   1 H        0.926     0.036     2.509     2.477
    33   1 H        0.926     0.048     2.341     2.393
    34   1 H        0.926     0.036     2.509     2.477
    35   1 H        0.926     0.036     2.508     2.476
    36   1 H        0.926     0.049     2.333     2.388
    37   6 C        1.992    -0.022    31.618     9.081
    38   6 C        1.963    -0.009    31.309     9.036
    39   6 C        1.963    -0.009    31.308     9.036
    40   6 C        1.992    -0.022    31.621     9.081
    41  28 Ni       3.033    -0.294   189.417    28.398
    42   6 C        3.023    -0.052    29.270     8.874
    43   6 C        3.021    -0.050    29.228     8.868
    44   6 C        3.184     0.073    25.930     8.310
    45   6 C        2.956     0.026    27.428     8.590
    46   6 C        3.184     0.074    25.930     8.310
    47   6 C        3.021    -0.050    29.226     8.868
    48   6 C        3.023    -0.052    29.270     8.874
    49   6 C        3.170     0.073    26.016     8.333
    50   7 N        2.628    -0.047    22.168     6.993
    51   6 C        2.904    -0.041    29.028     8.834
    52   6 C        3.166     0.074    26.009     8.334
    53   6 C        3.020    -0.051    29.249     8.871
    54   6 C        3.021    -0.051    29.250     8.872
    55   6 C        3.166     0.074    26.003     8.333
    56   7 N        2.629    -0.047    22.152     6.990
    57   6 C        2.904    -0.043    29.071     8.841
    58   6 C        3.166     0.074    26.002     8.333
    59   6 C        3.021    -0.051    29.251     8.872
    60   6 C        3.020    -0.051    29.249     8.871
    61   6 C        3.166     0.074    26.009     8.334
    62   7 N        2.628    -0.047    22.154     6.990
    63   6 C        2.904    -0.041    29.027     8.834
    64   6 C        3.170     0.073    26.016     8.333
    65   7 N        2.628    -0.047    22.170     6.993
    66   1 H        0.926     0.035     2.514     2.479
    67   1 H        0.926     0.037     2.488     2.467
    68   1 H        0.926     0.037     2.487     2.466
    69   1 H        0.926     0.035     2.514     2.479
    70   1 H        0.926     0.049     2.334     2.389
    71   1 H        0.926     0.036     2.508     2.476
    72   1 H        0.926     0.036     2.509     2.477
    73   1 H        0.926     0.048     2.342     2.393
    74   1 H        0.926     0.036     2.509     2.477
    75   1 H        0.926     0.036     2.508     2.476
    76   1 H        0.926     0.049     2.334     2.389

Wiberg/Mayer (AO) data.
largest (>0.10) Wiberg bond orders for each atom

     #   Z sym  total        # sym  WBO       # sym  WBO       # sym  WBO
 ---------------------------------------------------------------------------
     1  28 Ni   3.475 --    10 N    0.753    25 N    0.753    16 N    0.751
                            22 N    0.751
     2   6 C    3.953 --     3 C    1.646    24 C    1.170    26 H    0.972
     3   6 C    3.957 --     2 C    1.646     4 C    1.178    27 H    0.970
     4   6 C    3.917 --    25 N    1.261     5 C    1.253     3 C    1.178
     5   6 C    3.945 --     4 C    1.253     6 C    1.253    37 C    1.179
     6   6 C    3.917 --    10 N    1.262     5 C    1.253     7 C    1.178
     7   6 C    3.957 --     8 C    1.646     6 C    1.178    28 H    0.970
     8   6 C    3.953 --     7 C    1.646     9 C    1.170    29 H    0.972
     9   6 C    3.930 --    11 C    1.355    10 N    1.227     8 C    1.170
    10   7 N    3.577 --     6 C    1.262     9 C    1.227     1 Ni   0.753
    11   6 C    3.935 --     9 C    1.355    12 C    1.353    30 H    0.964
    12   6 C    3.935 --    11 C    1.353    16 N    1.239    13 C    1.161
    13   6 C    3.957 --    14 C    1.661    12 C    1.161    31 H    0.972
    14   6 C    3.955 --    13 C    1.661    15 C    1.161    32 H    0.972
    15   6 C    3.937 --    17 C    1.353    16 N    1.242    14 C    1.161
    16   7 N    3.571 --    15 C    1.242    12 C    1.239     1 Ni   0.751
    17   6 C    3.931 --    15 C    1.353    18 C    1.353    33 H    0.964
    18   6 C    3.937 --    17 C    1.353    22 N    1.242    19 C    1.161
    19   6 C    3.955 --    20 C    1.661    18 C    1.161    34 H    0.972
    20   6 C    3.957 --    19 C    1.661    21 C    1.161    35 H    0.972
    21   6 C    3.935 --    23 C    1.353    22 N    1.239    20 C    1.161
    22   7 N    3.571 --    18 C    1.242    21 C    1.239     1 Ni   0.751
    23   6 C    3.935 --    24 C    1.355    21 C    1.353    36 H    0.964
    24   6 C    3.930 --    23 C    1.355    25 N    1.227     2 C    1.170
    25   7 N    3.577 --     4 C    1.261    24 C    1.227     1 Ni   0.753
    26   1 H    0.998 --     2 C    0.972
    27   1 H    0.998 --     3 C    0.970
    28   1 H    0.998 --     7 C    0.970
    29   1 H    0.998 --     8 C    0.972
    30   1 H    0.996 --    11 C    0.964
    31   1 H    0.998 --    13 C    0.972
    32   1 H    0.998 --    14 C    0.972
    33   1 H    0.997 --    17 C    0.964
    34   1 H    0.998 --    19 C    0.972
    35   1 H    0.998 --    20 C    0.972
    36   1 H    0.996 --    23 C    0.964
    37   6 C    3.921 --    38 C    2.478     5 C    1.179    40 C    0.204
    38   6 C    3.931 --    37 C    2.478    39 C    1.300
    39   6 C    3.931 --    40 C    2.478    38 C    1.300
    40   6 C    3.921 --    39 C    2.478    45 C    1.180    37 C    0.204
    41  28 Ni   3.479 --    50 N    0.753    65 N    0.753    56 N    0.751
                            62 N    0.751
    42   6 C    3.953 --    43 C    1.645    64 C    1.170    66 H    0.972
    43   6 C    3.957 --    42 C    1.645    44 C    1.179    67 H    0.970
    44   6 C    3.917 --    65 N    1.262    45 C    1.252    43 C    1.179
    45   6 C    3.945 --    46 C    1.253    44 C    1.252    40 C    1.180
    46   6 C    3.917 --    50 N    1.262    45 C    1.253    47 C    1.179
    47   6 C    3.957 --    48 C    1.645    46 C    1.179    68 H    0.970
    48   6 C    3.953 --    47 C    1.645    49 C    1.170    69 H    0.972
    49   6 C    3.930 --    51 C    1.355    50 N    1.227    48 C    1.170
    50   7 N    3.577 --    46 C    1.262    49 C    1.227    41 Ni   0.753
    51   6 C    3.935 --    49 C    1.355    52 C    1.353    70 H    0.964
    52   6 C    3.935 --    51 C    1.353    56 N    1.239    53 C    1.161
    53   6 C    3.957 --    54 C    1.661    52 C    1.161    71 H    0.972
    54   6 C    3.955 --    53 C    1.661    55 C    1.161    72 H    0.972
    55   6 C    3.937 --    57 C    1.353    56 N    1.242    54 C    1.161
    56   7 N    3.571 --    55 C    1.242    52 C    1.239    41 Ni   0.751
    57   6 C    3.931 --    55 C    1.353    58 C    1.352    73 H    0.964
    58   6 C    3.937 --    57 C    1.352    62 N    1.242    59 C    1.161
    59   6 C    3.955 --    60 C    1.661    58 C    1.161    74 H    0.972
    60   6 C    3.957 --    59 C    1.661    61 C    1.161    75 H    0.972
    61   6 C    3.935 --    63 C    1.353    62 N    1.239    60 C    1.161
    62   7 N    3.571 --    58 C    1.242    61 C    1.239    41 Ni   0.751
    63   6 C    3.935 --    64 C    1.355    61 C    1.353    76 H    0.964
    64   6 C    3.930 --    63 C    1.355    65 N    1.227    42 C    1.170
    65   7 N    3.577 --    44 C    1.262    64 C    1.227    41 Ni   0.753
    66   1 H    0.998 --    42 C    0.972
    67   1 H    0.998 --    43 C    0.970
    68   1 H    0.998 --    47 C    0.970
    69   1 H    0.998 --    48 C    0.972
    70   1 H    0.996 --    51 C    0.964
    71   1 H    0.998 --    53 C    0.972
    72   1 H    0.998 --    54 C    0.972
    73   1 H    0.997 --    57 C    0.964
    74   1 H    0.998 --    59 C    0.972
    75   1 H    0.998 --    60 C    0.972
    76   1 H    0.996 --    63 C    0.964
 ---------------------------------------------------------------------------

molecular dipole:
                 x           y           z       tot (Debye)
 q only:       -0.000       0.003      -0.011
   full:       -0.001       0.004      -0.024       0.061

 projected vibrational frequencies (cm⁻¹)
eigval :       -0.00    -0.00    -0.00    -0.00     0.00     0.00
eigval :       -4.45     5.27     7.96     8.03    21.74    25.71
eigval :       27.18    35.27    49.59    78.60    90.63    99.75
eigval :      100.25   120.22   120.51   123.96   150.62   155.47
eigval :      176.50   177.65   181.94   225.85   226.82   227.03
eigval :      230.19   231.67   237.26   237.88   243.06   245.98
eigval :      246.67   247.17   271.81   272.10   273.81   274.51
eigval :      288.02   314.68   316.72   317.94   319.63   341.87
eigval :      344.25   355.00   359.11   367.14   371.91   379.95
eigval :      383.09   384.03   388.81   389.53   394.04   402.48
eigval :      404.41   415.42   422.39   423.01   435.48   436.03
eigval :      459.06   459.56   504.05   507.88   531.08   614.80
eigval :      615.13   621.38   621.67   626.37   626.40   639.25
eigval :      639.65   644.85   645.31   658.10   658.53   666.11
eigval :      666.52   671.21   671.82   721.93   722.26   722.91
eigval :      723.89   758.95   759.44   760.14   766.92   778.68
eigval :      779.18   780.73   781.57   797.37   798.55   800.63
eigval :      800.75   807.22   807.42   812.20   812.85   817.93
eigval :      820.37   820.80   827.97   828.47   835.42   835.88
eigval :      838.54   839.01   846.63   846.80   847.11   847.17
eigval :      848.15   848.43   848.49   848.84   928.28   985.13
eigval :      988.03  1000.55  1001.89  1002.52  1018.48  1022.82
eigval :     1022.89  1027.73  1027.87  1032.46  1036.69  1036.96
eigval :     1040.40  1040.65  1067.59  1067.84  1069.50  1070.53
eigval :     1071.85  1072.64  1073.08  1073.94  1127.26  1141.05
eigval :     1141.33  1142.18  1168.10  1174.27  1174.74  1175.93
eigval :     1226.22  1226.30  1226.93  1244.43  1244.65  1282.04
eigval :     1282.27  1302.83  1304.06  1304.57  1308.51  1316.89
eigval :     1317.33  1330.00  1332.49  1332.56  1332.63  1343.93
eigval :     1346.78  1353.81  1356.21  1359.21  1359.52  1403.03
eigval :     1465.94  1466.90  1470.40  1478.63  1490.02  1491.80
eigval :     1514.46  1514.58  1516.05  1517.05  1530.21  1532.04
eigval :     1533.73  1535.15  1543.99  1545.47  1560.41  1562.05
eigval :     1570.35  1572.28  1581.27  1583.47  1613.45  1615.96
eigval :     2236.29  2239.02  3095.71  3095.96  3096.26  3096.40
eigval :     3097.29  3097.36  3150.26  3150.37  3150.64  3150.75
eigval :     3154.79  3154.99  3155.13  3155.32  3164.03  3164.16
eigval :     3164.80  3165.24  3169.22  3169.61  3169.83  3170.11

   temp. (K)  partition function   enthalpy   heat capacity  entropy
                                   cal/mol     cal/K/mol   cal/K/mol   J/K/mol
 298.15  VIB  0.737E+20            24668.305    164.627    152.515
         ROT  0.179E+09              888.752      2.981     40.742
         INT  0.132E+29            25557.058    167.608    193.257
         TR   0.211E+29             1481.254      4.968     45.820
         TOT                       27038.3115   172.5757   239.0775  1000.3002

       T/K    H(0)-H(T)+PV         H(T)/Eh          T*S/Eh         G(T)/Eh
   ------------------------------------------------------------------------
    298.15    0.430883E-01    0.573395E+00    0.113593E+00    0.459802E+00
   ------------------------------------------------------------------------

         :::::::::::::::::::::::::::::::::::::::::::::::::::::
         ::                  THERMODYNAMIC                  ::
         :::::::::::::::::::::::::::::::::::::::::::::::::::::
         :: total free energy        -138.071629778044 Eh   ::
         ::.................................................::
         :: total energy             -138.531431823627 Eh   ::
         :: zero point energy           0.530307184128 Eh   ::
         :: G(RRHO) w/o ZPVE           -0.070505138545 Eh   ::
         :: G(RRHO) contrib.            0.459802045583 Eh   ::
         :::::::::::::::::::::::::::::::::::::::::::::::::::::

           -------------------------------------------------
          | TOTAL ENERGY             -138.531431823627 Eh   |
          | TOTAL ENTHALPY           -137.958036347469 Eh   |
          | TOTAL FREE ENERGY        -138.071629778044 Eh   |
          | GRADIENT NORM               0.000446171250 Eh/α |
          | HOMO-LUMO GAP               1.303399848014 eV   |
           -------------------------------------------------

 * finished run on 2021/11/19 at 10:44:14.962
