   * xtb version 6.4.1 (bd6e46d) compiled by 'conda@4901f00b25ba' on 2021-06-10
          program call               : /home/jeff/miniconda3/bin/xtb input_structure_1.xyz --gfn 2 --ohess normal --parallel 1 --etemp 300 --chrg 0 --uhf 0 -I det_control.in
          number of atoms            :                    78
          number of electrons        :                   266
          charge                     :                     0
          spin                       :                   0.0

   ID    Z sym.   atoms
    1   28 Ni     1, 43
    2    6 C      2-9, 11-15, 17-21, 23, 24, 37-42, 44-51, 53-57, 59-63, 65,
                  66
    3    7 N      10, 16, 22, 25, 52, 58, 64, 67
    4    1 H      26-36, 68-78

          :  Hamiltonian                  GFN2-xTB          :
 * total energy  :  -141.9982879 Eh     change       -0.5361187E-09 Eh
 * total energy  :  -142.4310913 Eh     change       -0.4328033E+00 Eh
 * total energy  :  -142.5529606 Eh     change       -0.1218693E+00 Eh
 * total energy  :  -142.6230367 Eh     change       -0.7007613E-01 Eh
 * total energy  :  -142.6626272 Eh     change       -0.3959046E-01 Eh
 * total energy  :  -142.6886319 Eh     change       -0.2600473E-01 Eh
 * total energy  :  -142.7057152 Eh     change       -0.1708323E-01 Eh
 * total energy  :  -142.7160941 Eh     change       -0.1037893E-01 Eh
 * total energy  :  -142.7224402 Eh     change       -0.6346137E-02 Eh
 * total energy  :  -142.7270405 Eh     change       -0.4600227E-02 Eh
 * total energy  :  -142.7574453 Eh     change       -0.8591860E-04 Eh
 * total energy  :  -142.7574939 Eh     change       -0.4865429E-04 Eh
 * total energy  :  -142.7575193 Eh     change       -0.2538119E-04 Eh
 * total energy  :  -142.7575268 Eh     change       -0.7479694E-05 Eh
 * total energy  :  -142.7575335 Eh     change       -0.6680905E-05 Eh
 * total energy  :  -142.7575367 Eh     change       -0.3229557E-05 Eh
 * total energy  :  -142.7575417 Eh     change       -0.5035365E-05 Eh
 * total energy  :  -142.7575479 Eh     change       -0.6174604E-05 Eh
 * total energy  :  -142.7575505 Eh     change       -0.2612259E-05 Eh
   *** GEOMETRY OPTIMIZATION CONVERGED AFTER 44 ITERATIONS ***

 final structure:
================
78
 xtb: 6.4.1 (bd6e46d)
Ni        6.66277907759898   -0.05276026312753    0.00891207995045
C         9.11855584632369   -3.49549238728680    0.08656106599903
C        10.08149542652688   -2.54689114458017    0.12257330720760
C         9.40830402365665   -1.28347795997825    0.09116997044359
C        10.08987544928232   -0.06260819017336    0.09220404272791
C         9.41634134035203    1.16220127625770    0.05349828904471
C        10.09790804550093    2.42148261182836    0.04051879523720
C         9.14029060884742    3.37553680722128    0.00751746531968
C         7.88168524994616    2.69208030189239    0.00373488386398
N         8.06597590763583    1.33521691051877    0.02790069315045
C         6.66892705613737    3.34956579860596   -0.00759472931153
C         5.45352932508633    2.69714543198397   -0.00145513070525
C         4.19400857240783    3.38416198546063    0.00251808512259
C         3.23589783898380    2.43235357914962    0.00232009741216
C         3.91429394142747    1.16782082399621   -0.00533652876215
N         5.26844767901089    1.34375273929976   -0.00302532208198
C         3.25259475883351   -0.04290202804816   -0.02999002392084
C         3.90779532595621   -1.25721437682759   -0.05052133086874
C         3.22283758123160   -2.51744141648354   -0.09415105983906
C         4.17565874198031   -3.47452400016509   -0.09718192095397
C         5.43851569766538   -2.79509041083615   -0.05186231710030
N         5.26073769571828   -1.44093035342922   -0.02909544395779
C         6.64953306770328   -3.45473748662511   -0.01827134830239
C         7.86504816278980   -2.80454545528841    0.03653350197399
N         8.05745212446431   -1.44859503949909    0.04409510569842
H         9.22410941770471   -4.56291662000141    0.09313686599703
H        11.14679518796155   -2.66539399785630    0.16424658944519
H        11.16455525571865    2.53399302835288    0.05444790310964
H         9.25256796398479    4.44209747713925   -0.01100013351862
H         6.67265363244479    4.42880502604313   -0.01748641953509
H         4.08589519918137    4.45156134105826    0.00584766482767
H         2.16926236060632    2.54763266203286    0.00477488884805
H         2.17349830249916   -0.03980561282923   -0.03907461317094
H         2.15586367130064   -2.62666698488862   -0.11952179553366
H         4.06189404809912   -4.54096229330643   -0.12503819470653
H         6.64714928692214   -4.53394923433704   -0.03082607346136
C        11.48634308229267   -0.06529265648992    0.12339204046498
C        12.70561988717082   -0.06285287674348    0.14304982428757
C        14.04226809800376   -0.05777785023574    0.15866623116918
C        15.26614727084661   -0.04695626023726    0.16742714380855
C        16.60276758896353   -0.03184777790821    0.17029894463846
C        17.82204055743872   -0.01417873519744    0.17136488836581
Ni       22.63486511545223    0.05404487062723   -0.02673322710044
C        20.14347892968622    3.44847628397329    0.31008375070072
C        19.19122539696433    2.48981953139756    0.25187207497702
C        19.88015333110461    1.23812643195882    0.15663884342232
C        19.21835253267498    0.00587606218557    0.15758735966005
C        19.91553520989939   -1.20640127298879    0.18749609056559
C        19.26449089232402   -2.47471429695187    0.32082781700110
C        20.24378393910725   -3.40679982202915    0.35746000767498
C        21.48398476988103   -2.70326235368379    0.22201288037852
N        21.26770591759832   -1.35404588122605    0.13099133990408
C        22.70568242104623   -3.33840286901402    0.13110609238677
C        23.88880589327063   -2.66900302183432   -0.10636600495548
C        25.14193184451034   -3.33545674594137   -0.31594102307454
C        26.05478571374707   -2.37136019915530   -0.56454757877327
C        25.36066608482703   -1.11809518644006   -0.48161042437669
N        24.03683609324424   -1.31527653005243   -0.21110517564642
C        25.99026184737334    0.10453894948650   -0.60069689476611
C        25.33618817444004    1.30562086516145   -0.41331474526759
C        26.00506580406479    2.57516255915815   -0.41995985976402
C        25.06567521837727    3.50806493364466   -0.15195280475427
C        23.82198541483933    2.80739275140000   -0.00796132313146
N        24.00348075801957    1.46225934604360   -0.16093622403739
C        22.61431087006801    3.44339414506816    0.19465076928747
C        21.40586777905680    2.77763412735510    0.22341492231532
N        21.22890621647976    1.42274831348539    0.13194618615789
H        20.02425067689395    4.51133665502259    0.39166948471687
H        18.12400410446152    2.59434647298520    0.28102155898697
H        18.20202290877379   -2.60720023319474    0.38646408657089
H        20.15639995525368   -4.47154050379734    0.45349842296405
H        22.73048274517544   -4.41452989178462    0.20945472852261
H        25.27598786718947   -4.39938630769050   -0.28248564019963
H        27.10221027218404   -2.47150330652108   -0.77407744184265
H        27.04889930459412    0.12118025108435   -0.80929466454826
H        27.05495527949794    2.70621911680259   -0.59768893554476
H        25.17555504545721    4.57194501172345   -0.06759891320400
H        22.60936031624409    4.51809135528042    0.29392948242146

          :  Hamiltonian                  GFN2-xTB          :
         :: gradient norm              0.000542608335 Eh/a0 ::
         :: HOMO-LUMO gap              1.292520555521 eV    ::
         :: SCC energy              -145.280620502675 Eh    ::
         :: -> dispersion             -0.121297629918 Eh    ::
         :: repulsion energy           2.524312711291 Eh    ::

    * Orbital Energies and Occupations

         #    Occupation            Energy/Eh            Energy/eV
      -------------------------------------------------------------
         1        2.0000           -0.6754176             -18.3790
       ...           ...                  ...                  ...
       121        2.0000           -0.3812509             -10.3744
       122        2.0000           -0.3739114             -10.1746
       123        2.0000           -0.3738394             -10.1727
       124        2.0000           -0.3710664             -10.0972
       125        2.0000           -0.3709948             -10.0953
       126        2.0000           -0.3702861             -10.0760
       127        2.0000           -0.3667155              -9.9788
       128        2.0000           -0.3667072              -9.9786
       129        2.0000           -0.3666436              -9.9769
       130        2.0000           -0.3666286              -9.9765
       131        2.0000           -0.3608048              -9.8180
       132        2.0000           -0.3607153              -9.8156
       133        2.0000           -0.3573293              -9.7234 (HOMO)
       134                         -0.3098302              -8.4309 (LUMO)
       135                         -0.2989500              -8.1348
       136                         -0.2989299              -8.1343
       137                         -0.2980241              -8.1096
       138                         -0.2972605              -8.0889
       139                         -0.2965875              -8.0706
       140                         -0.2673753              -7.2757
       141                         -0.2584135              -7.0318
       142                         -0.2541641              -6.9162
       143                         -0.2281814              -6.2091
       144                         -0.1933757              -5.2620
       ...                                ...                  ...
       256                          1.7158348              46.6902
      -------------------------------------------------------------
                  HL-Gap            0.0474992 Eh            1.2925 eV

     #   Z          covCN         q      C6AA      α(0)
     1  28 Ni       3.021    -0.292   189.389    28.396
     2   6 C        3.024    -0.052    29.269     8.874
     3   6 C        3.021    -0.051    29.229     8.868
     4   6 C        3.186     0.074    25.918     8.307
     5   6 C        2.956     0.025    27.440     8.592
     6   6 C        3.186     0.074    25.917     8.307
     7   6 C        3.021    -0.051    29.231     8.869
     8   6 C        3.024    -0.052    29.269     8.874
     9   6 C        3.172     0.073    26.006     8.330
    10   7 N        2.625    -0.048    22.179     6.994
    11   6 C        2.904    -0.041    29.029     8.834
    12   6 C        3.168     0.074    25.999     8.331
    13   6 C        3.020    -0.051    29.248     8.871
    14   6 C        3.021    -0.051    29.250     8.871
    15   6 C        3.168     0.075    25.993     8.330
    16   7 N        2.625    -0.047    22.160     6.991
    17   6 C        2.904    -0.043    29.073     8.841
    18   6 C        3.168     0.075    25.992     8.330
    19   6 C        3.021    -0.051    29.250     8.871
    20   6 C        3.020    -0.051    29.248     8.871
    21   6 C        3.168     0.074    25.999     8.331
    22   7 N        2.625    -0.047    22.160     6.991
    23   6 C        2.904    -0.041    29.030     8.834
    24   6 C        3.172     0.073    26.006     8.330
    25   7 N        2.625    -0.048    22.179     6.994
    26   1 H        0.926     0.035     2.513     2.479
    27   1 H        0.926     0.037     2.483     2.464
    28   1 H        0.926     0.037     2.483     2.464
    29   1 H        0.926     0.035     2.513     2.479
    30   1 H        0.926     0.049     2.332     2.388
    31   1 H        0.926     0.036     2.506     2.476
    32   1 H        0.926     0.036     2.508     2.476
    33   1 H        0.926     0.048     2.340     2.392
    34   1 H        0.926     0.036     2.508     2.476
    35   1 H        0.926     0.036     2.506     2.476
    36   1 H        0.926     0.049     2.332     2.388
    37   6 C        1.992    -0.020    31.584     9.076
    38   6 C        1.963    -0.009    31.322     9.038
    39   6 C        1.964    -0.002    31.125     9.010
    40   6 C        1.964    -0.002    31.125     9.010
    41   6 C        1.963    -0.009    31.320     9.038
    42   6 C        1.992    -0.020    31.586     9.076
    43  28 Ni       3.033    -0.293   189.413    28.397
    44   6 C        3.023    -0.052    29.269     8.874
    45   6 C        3.021    -0.051    29.230     8.868
    46   6 C        3.184     0.074    25.927     8.310
    47   6 C        2.956     0.025    27.438     8.592
    48   6 C        3.184     0.074    25.926     8.309
    49   6 C        3.021    -0.051    29.230     8.868
    50   6 C        3.023    -0.052    29.268     8.874
    51   6 C        3.170     0.073    26.014     8.332
    52   7 N        2.628    -0.048    22.173     6.993
    53   6 C        2.904    -0.041    29.026     8.834
    54   6 C        3.166     0.074    26.008     8.334
    55   6 C        3.020    -0.051    29.249     8.871
    56   6 C        3.021    -0.051    29.250     8.871
    57   6 C        3.166     0.075    26.001     8.333
    58   7 N        2.629    -0.047    22.153     6.990
    59   6 C        2.904    -0.043    29.070     8.841
    60   6 C        3.166     0.074    26.002     8.333
    61   6 C        3.021    -0.051    29.250     8.871
    62   6 C        3.020    -0.051    29.248     8.871
    63   6 C        3.167     0.074    26.007     8.333
    64   7 N        2.629    -0.047    22.153     6.990
    65   6 C        2.904    -0.041    29.026     8.834
    66   6 C        3.170     0.073    26.015     8.333
    67   7 N        2.628    -0.048    22.172     6.993
    68   1 H        0.926     0.035     2.513     2.479
    69   1 H        0.926     0.037     2.484     2.465
    70   1 H        0.926     0.037     2.484     2.465
    71   1 H        0.926     0.035     2.513     2.479
    72   1 H        0.926     0.049     2.333     2.388
    73   1 H        0.926     0.036     2.507     2.476
    74   1 H        0.926     0.036     2.508     2.476
    75   1 H        0.926     0.048     2.341     2.393
    76   1 H        0.926     0.036     2.508     2.476
    77   1 H        0.926     0.036     2.506     2.476
    78   1 H        0.926     0.049     2.333     2.388

Wiberg/Mayer (AO) data.
largest (>0.10) Wiberg bond orders for each atom

     #   Z sym  total        # sym  WBO       # sym  WBO       # sym  WBO
 ---------------------------------------------------------------------------
     1  28 Ni   3.475 --    25 N    0.753    10 N    0.753    22 N    0.751
                            16 N    0.751
     2   6 C    3.953 --     3 C    1.645    24 C    1.170    26 H    0.972
     3   6 C    3.957 --     2 C    1.645     4 C    1.179    27 H    0.970
     4   6 C    3.916 --    25 N    1.262     5 C    1.252     3 C    1.179
     5   6 C    3.945 --     4 C    1.252     6 C    1.251    37 C    1.182
     6   6 C    3.916 --    10 N    1.262     5 C    1.251     7 C    1.179
     7   6 C    3.957 --     8 C    1.645     6 C    1.179    28 H    0.970
     8   6 C    3.953 --     7 C    1.645     9 C    1.170    29 H    0.972
     9   6 C    3.930 --    11 C    1.355    10 N    1.227     8 C    1.170
    10   7 N    3.577 --     6 C    1.262     9 C    1.227     1 Ni   0.753
    11   6 C    3.935 --     9 C    1.355    12 C    1.353    30 H    0.964
    12   6 C    3.935 --    11 C    1.353    16 N    1.239    13 C    1.161
    13   6 C    3.957 --    14 C    1.661    12 C    1.161    31 H    0.972
    14   6 C    3.955 --    13 C    1.661    15 C    1.161    32 H    0.972
    15   6 C    3.937 --    17 C    1.353    16 N    1.242    14 C    1.161
    16   7 N    3.571 --    15 C    1.242    12 C    1.239     1 Ni   0.751
    17   6 C    3.931 --    15 C    1.353    18 C    1.353    33 H    0.964
    18   6 C    3.937 --    17 C    1.353    22 N    1.242    19 C    1.161
    19   6 C    3.955 --    20 C    1.661    18 C    1.161    34 H    0.972
    20   6 C    3.957 --    19 C    1.661    21 C    1.161    35 H    0.972
    21   6 C    3.935 --    23 C    1.354    22 N    1.239    20 C    1.161
    22   7 N    3.571 --    18 C    1.242    21 C    1.239     1 Ni   0.751
    23   6 C    3.935 --    24 C    1.355    21 C    1.354    36 H    0.964
    24   6 C    3.930 --    23 C    1.355    25 N    1.227     2 C    1.170
    25   7 N    3.577 --     4 C    1.262    24 C    1.227     1 Ni   0.753
    26   1 H    0.998 --     2 C    0.972
    27   1 H    0.998 --     3 C    0.970
    28   1 H    0.998 --     7 C    0.970
    29   1 H    0.998 --     8 C    0.972
    30   1 H    0.996 --    11 C    0.964
    31   1 H    0.998 --    13 C    0.972
    32   1 H    0.998 --    14 C    0.972
    33   1 H    0.997 --    17 C    0.964
    34   1 H    0.998 --    19 C    0.972
    35   1 H    0.998 --    20 C    0.972
    36   1 H    0.996 --    23 C    0.964
    37   6 C    3.885 --    38 C    2.449     5 C    1.182    40 C    0.194
    38   6 C    3.930 --    37 C    2.449    39 C    1.329
    39   6 C    3.921 --    40 C    2.363    38 C    1.329    42 C    0.194
    40   6 C    3.921 --    39 C    2.363    41 C    1.329    37 C    0.194
    41   6 C    3.930 --    42 C    2.448    40 C    1.329
    42   6 C    3.885 --    41 C    2.448    47 C    1.183    39 C    0.194
    43  28 Ni   3.479 --    67 N    0.753    52 N    0.753    64 N    0.751
                            58 N    0.751
    44   6 C    3.953 --    45 C    1.645    66 C    1.170    68 H    0.972
    45   6 C    3.957 --    44 C    1.645    46 C    1.179    69 H    0.970
    46   6 C    3.916 --    67 N    1.261    47 C    1.251    45 C    1.179
    47   6 C    3.945 --    46 C    1.251    48 C    1.250    42 C    1.183
    48   6 C    3.916 --    52 N    1.262    47 C    1.250    49 C    1.179
    49   6 C    3.957 --    50 C    1.645    48 C    1.179    70 H    0.970
    50   6 C    3.952 --    49 C    1.645    51 C    1.170    71 H    0.972
    51   6 C    3.930 --    53 C    1.355    52 N    1.226    50 C    1.170
    52   7 N    3.577 --    48 C    1.262    51 C    1.226    43 Ni   0.753
    53   6 C    3.935 --    51 C    1.355    54 C    1.353    72 H    0.964
    54   6 C    3.935 --    53 C    1.353    58 N    1.239    55 C    1.161
    55   6 C    3.957 --    56 C    1.661    54 C    1.161    73 H    0.972
    56   6 C    3.955 --    55 C    1.661    57 C    1.161    74 H    0.972
    57   6 C    3.937 --    59 C    1.353    58 N    1.242    56 C    1.161
    58   7 N    3.571 --    57 C    1.242    54 C    1.239    43 Ni   0.751
    59   6 C    3.931 --    57 C    1.353    60 C    1.352    75 H    0.964
    60   6 C    3.937 --    59 C    1.352    64 N    1.242    61 C    1.161
    61   6 C    3.955 --    62 C    1.661    60 C    1.161    76 H    0.972
    62   6 C    3.957 --    61 C    1.661    63 C    1.161    77 H    0.972
    63   6 C    3.935 --    65 C    1.353    64 N    1.239    62 C    1.161
    64   7 N    3.571 --    60 C    1.242    63 C    1.239    43 Ni   0.751
    65   6 C    3.935 --    66 C    1.355    63 C    1.353    78 H    0.964
    66   6 C    3.930 --    65 C    1.355    67 N    1.227    44 C    1.170
    67   7 N    3.577 --    46 C    1.261    66 C    1.227    43 Ni   0.753
    68   1 H    0.998 --    44 C    0.972
    69   1 H    0.998 --    45 C    0.970
    70   1 H    0.998 --    49 C    0.970
    71   1 H    0.998 --    50 C    0.972
    72   1 H    0.996 --    53 C    0.964
    73   1 H    0.998 --    55 C    0.972
    74   1 H    0.998 --    56 C    0.972
    75   1 H    0.997 --    59 C    0.964
    76   1 H    0.998 --    61 C    0.972
    77   1 H    0.998 --    62 C    0.972
    78   1 H    0.996 --    65 C    0.964
 ---------------------------------------------------------------------------

molecular dipole:
                 x           y           z       tot (Debye)
 q only:        0.000       0.005      -0.015
   full:        0.000       0.006      -0.027       0.070

 projected vibrational frequencies (cm⁻¹)
eigval :       -0.00    -0.00    -0.00     0.00     0.00     0.00
eigval :       -4.87     2.96     6.43     6.99    16.80    23.57
eigval :       25.51    27.33    40.44    71.93    74.93    91.46
eigval :       99.74    99.87   109.76   120.17   120.43   134.27
eigval :      174.09   175.88   176.24   177.17   185.66   226.32
eigval :      226.74   229.01   230.01   234.48   237.09   237.35
eigval :      238.02   245.89   246.82   247.33   271.79   272.44
eigval :      273.78   274.45   294.91   306.38   311.99   315.89
eigval :      317.82   341.50   343.81   347.35   350.61   355.51
eigval :      357.40   361.34   381.51   382.71   384.42   388.70
eigval :      389.21   390.70   392.44   402.61   404.55   409.63
eigval :      422.33   422.69   435.50   436.02   458.31   458.81
eigval :      483.71   504.75   506.10   614.72   614.91   621.31
eigval :      621.45   626.35   626.37   639.15   639.53   644.84
eigval :      645.25   658.11   658.48   666.07   666.41   671.19
eigval :      671.40   706.87   722.16   722.47   723.68   727.16
eigval :      758.92   759.11   765.71   771.72   778.73   779.20
eigval :      781.36   782.37   797.39   797.96   800.69   800.76
eigval :      807.31   807.39   812.55   812.80   820.50   820.79
eigval :      828.08   828.39   835.56   835.89   838.59   838.98
eigval :      847.00   847.09   847.17   847.25   848.31   848.48
eigval :      848.75   848.92   896.45   959.22   987.36   989.08
eigval :     1001.99  1002.62  1015.20  1021.37  1022.92  1022.94
eigval :     1027.74  1027.83  1036.78  1037.00  1040.44  1040.63
eigval :     1067.64  1067.82  1069.96  1070.34  1072.18  1072.56
eigval :     1073.38  1073.72  1084.31  1135.10  1140.91  1141.25
eigval :     1150.13  1171.81  1174.18  1174.67  1180.66  1226.14
eigval :     1226.26  1243.87  1244.45  1271.38  1281.87  1282.04
eigval :     1304.05  1304.43  1304.53  1312.77  1316.88  1317.30
eigval :     1331.25  1331.47  1332.16  1332.32  1345.25  1348.08
eigval :     1354.35  1357.05  1358.89  1359.22  1431.86  1465.55
eigval :     1466.57  1468.26  1481.45  1487.57  1499.49  1514.21
eigval :     1514.24  1515.83  1519.32  1529.66  1531.50  1532.87
eigval :     1537.45  1543.84  1545.32  1560.35  1561.88  1570.16
eigval :     1572.07  1581.28  1583.31  1613.29  1615.76  2166.22
eigval :     2205.44  2267.95  3095.90  3096.05  3096.27  3096.46
eigval :     3097.43  3097.59  3150.33  3150.38  3150.70  3150.75
eigval :     3154.89  3154.95  3155.10  3155.29  3163.98  3164.07
eigval :     3164.75  3165.10  3168.91  3169.10  3169.26  3169.61

   temp. (K)  partition function   enthalpy   heat capacity  entropy
                                   cal/mol     cal/K/mol   cal/K/mol   J/K/mol
 298.15  VIB  0.405E+22            26121.440    172.264    162.985
         ROT  0.244E+09              888.752      2.981     41.359
         INT  0.987E+30            27010.192    175.245    204.344
         TR   0.221E+29             1481.254      4.968     45.911
         TOT                       28491.4463   180.2129   250.2548  1047.0660

       T/K    H(0)-H(T)+PV         H(T)/Eh          T*S/Eh         G(T)/Eh
   ------------------------------------------------------------------------
    298.15    0.454040E-01    0.584885E+00    0.118904E+00    0.465980E+00
   ------------------------------------------------------------------------

         :::::::::::::::::::::::::::::::::::::::::::::::::::::
         ::                  THERMODYNAMIC                  ::
         :::::::::::::::::::::::::::::::::::::::::::::::::::::
         :: total free energy        -142.291570117639 Eh   ::
         ::.................................................::
         :: total energy             -142.757550534969 Eh   ::
         :: zero point energy           0.539480524558 Eh   ::
         :: G(RRHO) w/o ZPVE           -0.073500107228 Eh   ::
         :: G(RRHO) contrib.            0.465980417330 Eh   ::
         :::::::::::::::::::::::::::::::::::::::::::::::::::::

           -------------------------------------------------
          | TOTAL ENERGY             -142.757550534969 Eh   |
          | TOTAL ENTHALPY           -142.172666000658 Eh   |
          | TOTAL FREE ENERGY        -142.291570117639 Eh   |
          | GRADIENT NORM               0.000542044015 Eh/α |
          | HOMO-LUMO GAP               1.292518702799 eV   |
           -------------------------------------------------

 * finished run on 2021/11/19 at 10:50:39.490
