   * xtb version 6.4.1 (bd6e46d) compiled by 'conda@4901f00b25ba' on 2021-06-10
          program call               : /home/jeff/miniconda3/bin/xtb input_structure_1.xyz --gfn 2 --ohess normal --parallel 1 --etemp 300 --chrg 0 --uhf 0 -I det_control.in
          number of atoms            :                   118
          number of electrons        :                   370
          charge                     :                     0
          spin                       :                   0.0

   ID    Z sym.   atoms
    1    6 C      1-8, 10-14, 16-20, 22, 23, 38-45, 47-51, 53-57, 59, 60,
                  75-90, 92-96, 98-102, 104, 105
    2    7 N      9, 15, 21, 24, 46, 52, 58, 61, 91, 97, 103, 106
    3    1 H      25-37, 62-74, 107-118

          :  Hamiltonian                  GFN2-xTB          :
 * total energy  :  -198.5030049 Eh     change       -0.2443508E-07 Eh
 * total energy  :  -199.0903723 Eh     change       -0.5873674E+00 Eh
 * total energy  :  -199.2570686 Eh     change       -0.1666962E+00 Eh
 * total energy  :  -199.3888076 Eh     change       -0.1317390E+00 Eh
 * total energy  :  -199.5032471 Eh     change       -0.1144395E+00 Eh
 * total energy  :  -199.5874684 Eh     change       -0.8422138E-01 Eh
 * total energy  :  -199.6285402 Eh     change       -0.4107174E-01 Eh
 * total energy  :  -199.6629432 Eh     change       -0.3440305E-01 Eh
 * total energy  :  -199.6901606 Eh     change       -0.2721741E-01 Eh
 * total energy  :  -199.7129350 Eh     change       -0.2277437E-01 Eh
 * total energy  :  -199.8255038 Eh     change       -0.9358461E-04 Eh
 * total energy  :  -199.8255971 Eh     change       -0.9326570E-04 Eh
 * total energy  :  -199.8256834 Eh     change       -0.8630177E-04 Eh
 * total energy  :  -199.8257747 Eh     change       -0.9135549E-04 Eh
 * total energy  :  -199.8258153 Eh     change       -0.4058723E-04 Eh
 * total energy  :  -199.8258415 Eh     change       -0.2623259E-04 Eh
 * total energy  :  -199.8258572 Eh     change       -0.1568690E-04 Eh
 * total energy  :  -199.8258686 Eh     change       -0.1136584E-04 Eh
 * total energy  :  -199.8258714 Eh     change       -0.2835264E-05 Eh
   *** GEOMETRY OPTIMIZATION CONVERGED AFTER 44 ITERATIONS ***

 final structure:
================
118
 xtb: 6.4.1 (bd6e46d)
C        18.33818837085484    3.42062336815142    0.24269859715760
C        19.29385035871439    2.47197506237585    0.19846230231669
C        18.59340801930306    1.20534785072604    0.08171448814240
C        19.25484568687273   -0.03708316553561    0.00925603024074
C        18.60406381578578   -1.27751323240024   -0.09574059641003
C        19.20805736861369   -2.56103474531197   -0.17113579755795
C        18.20476007022377   -3.48160173605544   -0.27009942397595
C        16.96669094323314   -2.77980011321634   -0.25795644146551
N        17.26054580033414   -1.45426374671209   -0.14970462829474
C        15.69900463811996   -3.33618262016494   -0.34416893778094
C        14.48337371909916   -2.66632655173951   -0.33803909830584
C        13.20531873029162   -3.35644462684064   -0.43797681096930
C        12.25825440502046   -2.40108783022743   -0.39894416446817
C        12.96499432991372   -1.13542854847274   -0.27574611104870
N        14.29975388007064   -1.33312534165981   -0.24263784165967
C        12.32022867270922    0.09298076003438   -0.20356410873444
C        12.94554877754506    1.32490858128845   -0.08809086847721
C        12.34035312289979    2.61191542438058   -0.01016528972845
C        13.34039044289710    3.53312160925528    0.09263565170441
C        14.58212908720657    2.83340402403208    0.08014332411867
N        14.29136535862809    1.51041205852280   -0.02960674762103
C        15.85013901042075    3.38922618166115    0.16339196364613
C        17.06660470912160    2.72320650112531    0.15152907026088
N        17.26270642732812    1.38608616767461    0.05656479720626
H        18.44606570651941    4.48493431309223    0.32720715190457
H        20.36040772058199    2.57981215533860    0.23945034689830
H        20.26539824847698   -2.74037156176798   -0.15180125179725
H        18.30258470809110   -4.54707319234691   -0.34575768409105
H        16.58635339101181   -0.69841357814431   -0.11604501971582
H        15.65602706325083   -4.41341698156001   -0.42693833331327
H        13.09165267701637   -4.42014582226933   -0.52458939108909
H        11.19083435765400   -2.50204806875682   -0.44606453358707
H        11.24042466249184    0.08822895748404   -0.24066857132778
H        11.28325597330363    2.79315643381598   -0.03101638696294
H        13.24174155853675    4.59859788454082    0.17003653723835
H        14.96259524977201    0.75276676591533   -0.06548969038255
H        15.89459905976587    4.46652056335341    0.24606412571218
C        40.34051113095916   -3.39870473631576    0.47860986180804
C        39.38490194653301   -2.45035666364183    0.42760998836457
C        40.08371980323823   -1.18859984304178    0.25943049102564
C        39.42093894898356    0.05160961414688    0.16427939496344
C        40.06899890491790    1.29122449909095    0.03493321114535
C        39.46283778016063    2.57400288304957   -0.03591363225783
C        40.46363215091052    3.49514916985524   -0.15337176434155
C        41.70207773274626    2.79408659955886   -0.16140490202174
N        41.41124106304263    1.46884895871978   -0.04178875912542
C        42.96764422153341    3.34890595339278   -0.28168518378134
C        44.18083601257084    2.67543719531607   -0.31572412650115
C        45.45634677067552    3.36069456922791   -0.46739764801884
C        46.40024348223148    2.40143987992415   -0.46997575853745
C        45.69443819135481    1.13863633667740   -0.31570491848426
N        44.36304679169545    1.34156577895480   -0.22665078820602
C        46.33776666053461   -0.09159888201829   -0.26572527557333
C        45.71630773103459   -1.32055692562169   -0.10609653098874
C        46.32356249391004   -2.60691421625647   -0.03353451944615
C        45.32919458966489   -3.52438472741413    0.13602697544782
C        44.08881324288854   -2.82312307413213    0.16881204999385
N        44.37465157039120   -1.50297340356357    0.01912150510797
C        42.82515020416923   -3.37472074963373    0.31946761272481
C        41.60999316480152   -2.70653456589788    0.33457015501393
N        41.41315535542805   -1.37190649425115    0.20890921968942
H        40.23364553012897   -4.45986823368410    0.59707405659265
H        38.31949328334951   -2.55517588411458    0.49678261113670
H        38.40590166528623    2.75276051860460    0.00169320526580
H        40.36373597374274    4.56035429152052   -0.22994383437526
H        42.08758562676655    0.71466370045675   -0.01676827608338
H        43.01034643171902    4.42588935855073   -0.36730030071595
H        45.57047649850627    4.42402124383819   -0.55794881474714
H        47.46509755053872    2.49815484836817   -0.56226223199289
H        47.41465337790507   -0.09050153865352   -0.35357169665295
H        47.37826819388989   -2.79019421594328   -0.10221053616363
H        45.43079776223879   -4.58827899988920    0.22970746718711
H        43.70188177437396   -0.74612406225029    0.00130209945671
H        42.78293115417429   -4.44958892168912    0.42980149808717
C        20.65105633012130   -0.04185022943480    0.03629963159602
C        21.86958812165731   -0.02854710190039    0.05722830098792
C        23.21030472546111   -0.02116550207746    0.07130667177721
C        24.42901994624591   -0.00224039069574    0.07786564150191
C        34.24708706177525    0.01436019855334    0.15648864529260
C        35.46564924780508    0.03153934711582    0.17966520629077
C        36.80613289744481    0.04750957065886    0.18907704102108
C        38.02493338995394    0.05435656188427    0.19113708194993
C        26.81967096490173   -3.40416811180029    0.51508104771594
C        25.84052014891069   -2.48648137184428    0.39364369349052
C        26.50995860026608   -1.20889617916808    0.23423012551832
C        25.82414805160834    0.01272941105834    0.07982422410864
C        26.46571930244798    1.25392863948056   -0.07117388596762
C        25.86251530950199    2.52834735800426   -0.23277472873824
C        26.86912497266524    3.44441925644128   -0.34794645584753
C        28.10652283644323    2.74799467231503   -0.25802419067697
N        27.81035429980156    1.42964085585952   -0.09105103692450
C        29.37203976346004    3.31445090635967   -0.32785268921711
C        30.60233626038542    2.68336856125935   -0.23939167194978
C        31.85747175528459    3.41070284193675   -0.32654472342190
C        32.83645787014080    2.49419643380578   -0.19523397550455
C        32.16681458836395    1.21728459866249   -0.03140087788135
N        30.83159519408358    1.35960261683123   -0.06302565696348
C        32.85235755751176   -0.00278672468491    0.13630353995287
C        32.21089172523409   -1.24440378731448    0.28416659046817
C        32.81431158945426   -2.51832985645415    0.44883443304057
C        31.80793452287732   -3.43593299625341    0.55313015099738
C        30.57044529127979   -2.74080920034156    0.45459813533298
N        30.86642270586137   -1.42181473008941    0.29222689272610
C        29.30493081006342   -3.30809878861191    0.51608641098598
C        28.07469931185670   -2.67663847151276    0.42836787345981
N        27.84535528699901   -1.35204320656145    0.25884392575196
H        26.73767221692094   -4.46552981901315    0.65049956584238
H        24.77635518413320   -2.62181967865452    0.40657674374890
H        24.80503963753663    2.70589844017584   -0.25667593514275
H        26.77334449824879    4.50432018207532   -0.48211604624590
H        28.46894567792441    0.66449293916597    0.00550466638554
H        29.39785310711853    4.38679040196082   -0.46751305179195
H        31.93971432112168    4.47131191203950   -0.46749754446371
H        33.90062755296385    2.62981845953286   -0.20463662081517
H        33.87175608497542   -2.69470150587666    0.48055561202129
H        31.90398826625755   -4.49592789256405    0.68602087346138
H        30.20774545501901   -0.65736330124738    0.19097460423215
H        29.27888566914621   -4.38092177983134    0.65189619913467

          :  Hamiltonian                  GFN2-xTB          :
         :: gradient norm              0.000825995113 Eh/a0 ::
         :: HOMO-LUMO gap              0.912085381352 eV    ::
         :: SCC energy              -203.594253350749 Eh    ::
         :: -> dispersion             -0.163344187470 Eh    ::
         :: repulsion energy           3.770753885677 Eh    ::

    * Orbital Energies and Occupations

         #    Occupation            Energy/Eh            Energy/eV
      -------------------------------------------------------------
         1        2.0000           -0.6844453             -18.6247
       ...           ...                  ...                  ...
       173        2.0000           -0.3871324             -10.5344
       174        2.0000           -0.3733834             -10.1603
       175        2.0000           -0.3728740             -10.1464
       176        2.0000           -0.3720235             -10.1233
       177        2.0000           -0.3720103             -10.1229
       178        2.0000           -0.3711273             -10.0989
       179        2.0000           -0.3711175             -10.0986
       180        2.0000           -0.3695594             -10.0562
       181        2.0000           -0.3686913             -10.0326
       182        2.0000           -0.3685788             -10.0295
       183        2.0000           -0.3643946              -9.9157
       184        2.0000           -0.3560317              -9.6881
       185        2.0000           -0.3463507              -9.4247 (HOMO)
       186                         -0.3128322              -8.5126 (LUMO)
       187                         -0.3022345              -8.2242
       188                         -0.2982516              -8.1158
       189                         -0.2976357              -8.0991
       190                         -0.2972645              -8.0890
       191                         -0.2927398              -7.9659
       192                         -0.2680021              -7.2927
       193                         -0.2589290              -7.0458
       194                         -0.2548081              -6.9337
       195                         -0.2251093              -6.1255
       196                         -0.2248290              -6.1179
       ...                                ...                  ...
       358                          1.6342185              44.4693
      -------------------------------------------------------------
                  HL-Gap            0.0335185 Eh            0.9121 eV

     #   Z          covCN         q      C6AA      α(0)
     1   6 C        3.016    -0.055    29.339     8.885
     2   6 C        3.009    -0.053    29.301     8.879
     3   6 C        3.196     0.087    25.569     8.244
     4   6 C        2.952     0.012    27.750     8.640
     5   6 C        3.097     0.064    26.449     8.428
     6   6 C        3.027    -0.050    29.208     8.865
     7   6 C        3.034    -0.052    29.252     8.871
     8   6 C        3.073     0.064    26.487     8.438
     9   7 N        2.785    -0.081    22.815     7.094
    10   6 C        2.899    -0.055    29.366     8.885
    11   6 C        3.171     0.087    25.718     8.285
    12   6 C        3.012    -0.054    29.316     8.882
    13   6 C        3.010    -0.054    29.318     8.882
    14   6 C        3.174     0.086    25.707     8.281
    15   7 N        1.870    -0.321    29.175     8.006
    16   6 C        2.899    -0.057    29.410     8.892
    17   6 C        3.074     0.065    26.470     8.435
    18   6 C        3.026    -0.051    29.240     8.870
    19   6 C        3.031    -0.051    29.231     8.868
    20   6 C        3.069     0.066    26.463     8.435
    21   7 N        2.787    -0.081    22.813     7.094
    22   6 C        2.899    -0.055    29.365     8.885
    23   6 C        3.175     0.085    25.723     8.283
    24   7 N        1.870    -0.325    29.275     8.020
    25   1 H        0.926     0.018     2.756     2.596
    26   1 H        0.926     0.021     2.723     2.580
    27   1 H        0.926     0.043     2.406     2.426
    28   1 H        0.926     0.041     2.430     2.438
    29   1 H        0.860     0.214     1.037     1.595
    30   1 H        0.925     0.047     2.359     2.402
    31   1 H        0.926     0.019     2.742     2.589
    32   1 H        0.926     0.019     2.742     2.589
    33   1 H        0.926     0.046     2.369     2.407
    34   1 H        0.926     0.042     2.424     2.435
    35   1 H        0.926     0.042     2.425     2.435
    36   1 H        0.860     0.214     1.036     1.594
    37   1 H        0.925     0.047     2.358     2.401
    38   6 C        3.016    -0.055    29.339     8.885
    39   6 C        3.009    -0.053    29.300     8.879
    40   6 C        3.196     0.087    25.565     8.243
    41   6 C        2.952     0.012    27.750     8.640
    42   6 C        3.097     0.064    26.449     8.429
    43   6 C        3.027    -0.050    29.208     8.865
    44   6 C        3.033    -0.052    29.252     8.871
    45   6 C        3.074     0.064    26.488     8.438
    46   7 N        2.785    -0.081    22.814     7.094
    47   6 C        2.899    -0.055    29.365     8.885
    48   6 C        3.171     0.087    25.717     8.284
    49   6 C        3.012    -0.054    29.316     8.882
    50   6 C        3.010    -0.054    29.318     8.882
    51   6 C        3.174     0.086    25.707     8.281
    52   7 N        1.870    -0.321    29.175     8.007
    53   6 C        2.899    -0.057    29.410     8.892
    54   6 C        3.074     0.065    26.469     8.435
    55   6 C        3.026    -0.051    29.240     8.870
    56   6 C        3.031    -0.051    29.232     8.868
    57   6 C        3.069     0.066    26.464     8.435
    58   7 N        2.787    -0.081    22.812     7.094
    59   6 C        2.899    -0.055    29.364     8.885
    60   6 C        3.175     0.085    25.722     8.282
    61   7 N        1.870    -0.325    29.276     8.020
    62   1 H        0.926     0.018     2.756     2.596
    63   1 H        0.926     0.021     2.723     2.581
    64   1 H        0.926     0.043     2.406     2.425
    65   1 H        0.926     0.041     2.430     2.438
    66   1 H        0.860     0.214     1.037     1.595
    67   1 H        0.925     0.047     2.359     2.402
    68   1 H        0.926     0.019     2.742     2.589
    69   1 H        0.926     0.019     2.742     2.589
    70   1 H        0.926     0.046     2.369     2.407
    71   1 H        0.926     0.042     2.424     2.435
    72   1 H        0.926     0.042     2.424     2.435
    73   1 H        0.860     0.214     1.036     1.594
    74   1 H        0.925     0.047     2.358     2.401
    75   6 C        1.996    -0.022    31.625     9.082
    76   6 C        1.963    -0.011    31.371     9.045
    77   6 C        1.963    -0.011    31.354     9.043
    78   6 C        1.994    -0.023    31.643     9.084
    79   6 C        1.994    -0.023    31.643     9.084
    80   6 C        1.964    -0.011    31.355     9.043
    81   6 C        1.963    -0.011    31.373     9.045
    82   6 C        1.996    -0.022    31.625     9.082
    83   6 C        3.017    -0.055    29.333     8.884
    84   6 C        3.009    -0.053    29.298     8.879
    85   6 C        3.196     0.087    25.570     8.243
    86   6 C        2.952     0.012    27.745     8.639
    87   6 C        3.100     0.064    26.457     8.429
    88   6 C        3.025    -0.050    29.217     8.866
    89   6 C        3.037    -0.052    29.250     8.871
    90   6 C        3.073     0.064    26.493     8.439
    91   7 N        2.786    -0.081    22.820     7.095
    92   6 C        2.899    -0.053    29.312     8.877
    93   6 C        3.174     0.085    25.737     8.286
    94   6 C        3.017    -0.055    29.333     8.884
    95   6 C        3.009    -0.053    29.297     8.879
    96   6 C        3.196     0.087    25.568     8.243
    97   7 N        1.870    -0.324    29.257     8.018
    98   6 C        2.952     0.012    27.745     8.639
    99   6 C        3.100     0.064    26.457     8.429
   100   6 C        3.025    -0.050    29.217     8.866
   101   6 C        3.037    -0.052    29.250     8.871
   102   6 C        3.073     0.064    26.493     8.439
   103   7 N        2.786    -0.081    22.820     7.095
   104   6 C        2.899    -0.053    29.312     8.877
   105   6 C        3.174     0.085    25.736     8.286
   106   7 N        1.870    -0.324    29.257     8.018
   107   1 H        0.926     0.019     2.755     2.596
   108   1 H        0.926     0.021     2.724     2.581
   109   1 H        0.926     0.043     2.410     2.428
   110   1 H        0.926     0.041     2.433     2.439
   111   1 H        0.860     0.214     1.036     1.594
   112   1 H        0.925     0.048     2.350     2.397
   113   1 H        0.926     0.019     2.755     2.596
   114   1 H        0.926     0.021     2.724     2.581
   115   1 H        0.926     0.043     2.410     2.428
   116   1 H        0.926     0.041     2.433     2.439
   117   1 H        0.860     0.214     1.036     1.594
   118   1 H        0.925     0.048     2.350     2.397

Wiberg/Mayer (AO) data.
largest (>0.10) Wiberg bond orders for each atom

     #   Z sym  total        # sym  WBO       # sym  WBO       # sym  WBO
 ---------------------------------------------------------------------------
     1   6 C    3.960 --     2 C    1.716    23 C    1.115    25 H    0.973
     2   6 C    3.961 --     1 C    1.716     3 C    1.122    26 H    0.972
     3   6 C    3.917 --    24 N    1.362     4 C    1.243     2 C    1.122
     4   6 C    3.939 --     5 C    1.248     3 C    1.243    75 C    1.191
     5   6 C    3.902 --     4 C    1.248     6 C    1.237     9 N    1.226
     6   6 C    3.955 --     7 C    1.592     5 C    1.237    27 H    0.972
     7   6 C    3.948 --     6 C    1.592     8 C    1.224    28 H    0.973
     8   6 C    3.918 --    10 C    1.344     7 C    1.224     9 N    1.202
     9   7 N    3.590 --     5 C    1.226     8 C    1.202    29 H    0.900
    10   6 C    3.921 --    11 C    1.357     8 C    1.344    30 H    0.964
    11   6 C    3.939 --    10 C    1.357    15 N    1.324    12 C    1.107
    12   6 C    3.963 --    13 C    1.731    11 C    1.107    31 H    0.973
    13   6 C    3.962 --    12 C    1.731    14 C    1.109    32 H    0.973
    14   6 C    3.938 --    16 C    1.354    15 N    1.325    13 C    1.109
    15   7 N    3.001 --    14 C    1.325    11 C    1.324
    16   6 C    3.922 --    14 C    1.354    17 C    1.347    33 H    0.965
    17   6 C    3.921 --    16 C    1.347    18 C    1.216    21 N    1.210
    18   6 C    3.949 --    19 C    1.608    17 C    1.216    34 H    0.973
    19   6 C    3.953 --    18 C    1.608    20 C    1.215    35 H    0.973
    20   6 C    3.916 --    22 C    1.342    19 C    1.215    21 N    1.211
    21   7 N    3.586 --    20 C    1.211    17 C    1.210    36 H    0.900
    22   6 C    3.937 --    23 C    1.367    20 C    1.342    37 H    0.964
    23   6 C    3.924 --    22 C    1.367    24 N    1.299     1 C    1.115
    24   7 N    3.009 --     3 C    1.362    23 C    1.299
    25   1 H    0.999 --     1 C    0.973
    26   1 H    0.999 --     2 C    0.972
    27   1 H    0.998 --     6 C    0.972
    28   1 H    0.998 --     7 C    0.973
    29   1 H    0.954 --     9 N    0.900
    30   1 H    0.997 --    10 C    0.964
    31   1 H    0.999 --    12 C    0.973
    32   1 H    0.999 --    13 C    0.973
    33   1 H    0.997 --    16 C    0.965
    34   1 H    0.998 --    18 C    0.973
    35   1 H    0.998 --    19 C    0.973
    36   1 H    0.954 --    21 N    0.900
    37   1 H    0.997 --    22 C    0.964
    38   6 C    3.960 --    39 C    1.716    60 C    1.115    62 H    0.973
    39   6 C    3.961 --    38 C    1.716    40 C    1.121    63 H    0.972
    40   6 C    3.916 --    61 N    1.363    41 C    1.243    39 C    1.121
    41   6 C    3.939 --    42 C    1.248    40 C    1.243    82 C    1.192
    42   6 C    3.902 --    41 C    1.248    43 C    1.237    46 N    1.226
    43   6 C    3.955 --    44 C    1.592    42 C    1.237    64 H    0.972
    44   6 C    3.948 --    43 C    1.592    45 C    1.224    65 H    0.973
    45   6 C    3.918 --    47 C    1.344    44 C    1.224    46 N    1.202
    46   7 N    3.590 --    42 C    1.226    45 C    1.202    66 H    0.900
    47   6 C    3.920 --    48 C    1.357    45 C    1.344    67 H    0.964
    48   6 C    3.939 --    47 C    1.357    52 N    1.324    49 C    1.107
    49   6 C    3.963 --    50 C    1.731    48 C    1.107    68 H    0.973
    50   6 C    3.962 --    49 C    1.731    51 C    1.109    69 H    0.973
    51   6 C    3.938 --    53 C    1.354    52 N    1.325    50 C    1.109
    52   7 N    3.000 --    51 C    1.325    48 C    1.324
    53   6 C    3.922 --    51 C    1.354    54 C    1.347    70 H    0.965
    54   6 C    3.921 --    53 C    1.347    55 C    1.216    58 N    1.210
    55   6 C    3.949 --    56 C    1.608    54 C    1.216    71 H    0.973
    56   6 C    3.953 --    55 C    1.608    57 C    1.216    72 H    0.973
    57   6 C    3.916 --    59 C    1.342    56 C    1.216    58 N    1.211
    58   7 N    3.586 --    57 C    1.211    54 C    1.210    73 H    0.901
    59   6 C    3.937 --    60 C    1.367    57 C    1.342    74 H    0.964
    60   6 C    3.924 --    59 C    1.367    61 N    1.298    38 C    1.115
    61   7 N    3.009 --    40 C    1.363    60 C    1.298
    62   1 H    0.999 --    38 C    0.973
    63   1 H    0.999 --    39 C    0.972
    64   1 H    0.998 --    43 C    0.972
    65   1 H    0.998 --    44 C    0.973
    66   1 H    0.954 --    46 N    0.900
    67   1 H    0.997 --    47 C    0.964
    68   1 H    0.999 --    49 C    0.973
    69   1 H    0.999 --    50 C    0.973
    70   1 H    0.997 --    53 C    0.965
    71   1 H    0.998 --    55 C    0.973
    72   1 H    0.998 --    56 C    0.973
    73   1 H    0.954 --    58 N    0.901
    74   1 H    0.997 --    59 C    0.964
    75   6 C    3.916 --    76 C    2.462     4 C    1.191    78 C    0.202
    76   6 C    3.925 --    75 C    2.462    77 C    1.310
    77   6 C    3.921 --    78 C    2.459    76 C    1.310
    78   6 C    3.918 --    77 C    2.459    86 C    1.195    75 C    0.202
    79   6 C    3.918 --    80 C    2.459    98 C    1.196    82 C    0.202
    80   6 C    3.921 --    79 C    2.459    81 C    1.311
    81   6 C    3.925 --    82 C    2.461    80 C    1.311
    82   6 C    3.916 --    81 C    2.461    41 C    1.192    79 C    0.202
    83   6 C    3.961 --    84 C    1.716   105 C    1.115   107 H    0.973
    84   6 C    3.961 --    83 C    1.716    85 C    1.123   108 H    0.972
    85   6 C    3.917 --   106 N    1.362    86 C    1.242    84 C    1.123
    86   6 C    3.925 --    87 C    1.244    85 C    1.242    78 C    1.195
    87   6 C    3.903 --    86 C    1.244    88 C    1.241    91 N    1.226
    88   6 C    3.952 --    89 C    1.587    87 C    1.241   109 H    0.972
    89   6 C    3.949 --    88 C    1.587    90 C    1.228   110 H    0.973
    90   6 C    3.914 --    92 C    1.336    89 C    1.228    91 N    1.203
    91   7 N    3.586 --    87 C    1.226    90 C    1.203   111 H    0.898
    92   6 C    3.923 --    93 C    1.371    90 C    1.336   112 H    0.963
    93   6 C    3.927 --    92 C    1.371    97 N    1.295    94 C    1.115
    94   6 C    3.961 --    95 C    1.716    93 C    1.115   113 H    0.973
    95   6 C    3.960 --    94 C    1.716    96 C    1.123   114 H    0.972
    96   6 C    3.917 --    97 N    1.363    98 C    1.241    95 C    1.123
    97   7 N    3.000 --    96 C    1.363    93 C    1.295
    98   6 C    3.926 --    99 C    1.244    96 C    1.241    79 C    1.196
    99   6 C    3.903 --    98 C    1.244   100 C    1.241   103 N    1.227
   100   6 C    3.952 --   101 C    1.587    99 C    1.241   115 H    0.972
   101   6 C    3.949 --   100 C    1.587   102 C    1.228   116 H    0.973
   102   6 C    3.914 --   104 C    1.336   101 C    1.228   103 N    1.203
   103   7 N    3.586 --    99 C    1.227   102 C    1.203   117 H    0.898
   104   6 C    3.922 --   105 C    1.371   102 C    1.336   118 H    0.963
   105   6 C    3.927 --   104 C    1.371   106 N    1.295    83 C    1.115
   106   7 N    3.000 --    85 C    1.362   105 C    1.295
   107   1 H    0.999 --    83 C    0.973
   108   1 H    0.999 --    84 C    0.972
   109   1 H    0.998 --    88 C    0.972
   110   1 H    0.998 --    89 C    0.973
   111   1 H    0.954 --    91 N    0.898
   112   1 H    0.997 --    92 C    0.963
   113   1 H    0.999 --    94 C    0.973
   114   1 H    0.999 --    95 C    0.972
   115   1 H    0.998 --   100 C    0.972
   116   1 H    0.998 --   101 C    0.973
   117   1 H    0.954 --   103 N    0.898
   118   1 H    0.997 --   104 C    0.963
 ---------------------------------------------------------------------------

molecular dipole:
                 x           y           z       tot (Debye)
 q only:        0.001      -0.000      -0.023
   full:        0.001      -0.001      -0.036       0.091

 projected vibrational frequencies (cm⁻¹)
eigval :       -0.00    -0.00     0.00     0.00     0.00     0.00
eigval :        2.79     3.40     5.63     7.27     8.55    10.12
eigval :       15.71    25.60    28.68    29.32    37.94    41.68
eigval :       42.62    42.75    44.69    52.87    56.32    67.82
eigval :       69.85    89.17    91.75    94.22    94.80   108.65
eigval :      111.52   113.91   115.30   116.57   130.79   132.63
eigval :      139.50   140.11   142.40   146.92   153.12   157.54
eigval :      177.78   180.87   184.88   190.19   191.19   195.46
eigval :      201.16   202.14   202.52   212.19   252.74   257.61
eigval :      265.07   265.56   265.69   266.03   266.65   275.07
eigval :      279.36   287.20   298.19   298.73   299.23   320.84
eigval :      322.91   326.52   338.27   340.62   343.02   343.61
eigval :      352.88   354.44   358.18   360.73   362.34   362.76
eigval :      368.59   369.12   369.19   382.81   383.06   393.76
eigval :      394.01   394.08   399.37   419.78   421.47   422.50
eigval :      430.27   430.27   439.54   442.04   442.15   442.78
eigval :      501.02   502.33   503.61   504.91   505.87   513.81
eigval :      600.51   600.73   600.93   605.00   605.34   605.76
eigval :      625.06   627.36   627.37   636.74   636.76   638.34
eigval :      647.00   647.03   649.58   649.83   650.76   650.81
eigval :      653.51   653.63   657.52   657.66   665.17   666.19
eigval :      668.77   669.01   671.02   713.79   713.83   722.97
eigval :      723.13   727.70   728.02   733.68   737.01   741.29
eigval :      741.40   741.54   747.78   747.97   754.89   759.52
eigval :      760.51   760.77   770.98   771.05   784.10   788.35
eigval :      788.74   789.98   798.46   798.48   804.46   806.11
eigval :      806.17   806.68   811.93   812.04   814.74   815.38
eigval :      816.82   818.59   819.16   819.22   827.89   827.91
eigval :      836.10   836.22   837.38   837.63   839.20   839.26
eigval :      842.12   842.19   842.75   842.81   843.49   843.79
eigval :      852.42   852.45   853.07   853.27   853.50   853.57
eigval :      923.33   926.08   959.66   960.31   960.47   971.02
eigval :      972.87   973.02   975.04   975.51   982.45   986.38
eigval :      999.51   999.61  1004.75  1006.35  1011.40  1013.13
eigval :     1016.64  1016.87  1023.85  1031.78  1031.82  1037.39
eigval :     1063.31  1063.37  1064.76  1066.05  1066.23  1066.97
eigval :     1069.32  1069.41  1069.75  1074.09  1074.85  1074.89
eigval :     1079.57  1091.17  1107.82  1119.91  1122.75  1123.16
eigval :     1133.34  1140.45  1147.60  1157.40  1162.54  1164.96
eigval :     1178.76  1180.54  1182.62  1184.31  1184.67  1199.55
eigval :     1205.77  1207.34  1230.89  1232.56  1232.60  1243.32
eigval :     1247.25  1255.36  1259.48  1263.97  1280.42  1285.55
eigval :     1285.60  1293.77  1305.62  1305.72  1328.41  1337.04
eigval :     1338.17  1339.21  1347.18  1347.25  1359.97  1360.56
eigval :     1364.19  1366.59  1374.50  1374.55  1381.98  1383.21
eigval :     1383.23  1386.12  1386.97  1388.18  1388.50  1391.74
eigval :     1396.85  1420.16  1431.28  1449.17  1460.23  1461.03
eigval :     1475.88  1478.48  1479.89  1490.50  1494.96  1495.07
eigval :     1495.89  1501.89  1504.94  1505.09  1506.19  1508.96
eigval :     1509.08  1513.60  1513.65  1537.42  1548.49  1549.98
eigval :     1550.07  1554.65  1555.08  1555.66  1560.44  1560.47
eigval :     1582.28  1585.19  1585.21  1587.02  1594.45  1594.51
eigval :     2216.07  2221.39  2231.06  2231.30  3073.86  3074.34
eigval :     3077.10  3077.43  3078.28  3078.67  3085.95  3086.09
eigval :     3140.20  3140.22  3144.69  3144.77  3144.78  3144.82
eigval :     3155.34  3155.41  3156.56  3156.60  3159.96  3160.04
eigval :     3160.08  3160.40  3161.04  3161.11  3161.43  3161.50
eigval :     3169.02  3169.08  3172.50  3172.62  3172.85  3173.23
eigval :     3333.71  3337.31  3350.66  3351.70  3359.19  3360.20

   temp. (K)  partition function   enthalpy   heat capacity  entropy
                                   cal/mol     cal/K/mol   cal/K/mol   J/K/mol
 298.15  VIB  0.161E+34            38963.949    253.704    248.018
         ROT  0.725E+09              888.752      2.981     43.523
         INT  0.117E+43            39852.701    256.685    291.542
         TR   0.317E+29             1481.254      4.968     46.628
         TOT                       41333.9553   261.6534   338.1703  1414.9044

       T/K    H(0)-H(T)+PV         H(T)/Eh          T*S/Eh         G(T)/Eh
   ------------------------------------------------------------------------
    298.15    0.658699E-01    0.919034E+00    0.160676E+00    0.758358E+00
   ------------------------------------------------------------------------

         :::::::::::::::::::::::::::::::::::::::::::::::::::::
         ::                  THERMODYNAMIC                  ::
         :::::::::::::::::::::::::::::::::::::::::::::::::::::
         :: total free energy        -199.067513495932 Eh   ::
         ::.................................................::
         :: total energy             -199.825871422765 Eh   ::
         :: zero point energy           0.853163678827 Eh   ::
         :: G(RRHO) w/o ZPVE           -0.094805751994 Eh   ::
         :: G(RRHO) contrib.            0.758357926833 Eh   ::
         :::::::::::::::::::::::::::::::::::::::::::::::::::::

           -------------------------------------------------
          | TOTAL ENERGY             -199.825871422765 Eh   |
          | TOTAL ENTHALPY           -198.906837893407 Eh   |
          | TOTAL FREE ENERGY        -199.067513495932 Eh   |
          | GRADIENT NORM               0.000826119470 Eh/α |
          | HOMO-LUMO GAP               0.912085712186 eV   |
           -------------------------------------------------

 * finished run on 2021/11/19 at 15:21:59.758
