   * xtb version 6.4.1 (bd6e46d) compiled by 'conda@4901f00b25ba' on 2021-06-10
          program call               : /home/jeff/miniconda3/bin/xtb input_structure_1.xyz --gfn 2 --ohess normal --parallel 1 --etemp 300 --chrg 0 --uhf 0 -I det_control.in
          number of atoms            :                    74
          number of electrons        :                   246
          charge                     :                     0
          spin                       :                   0.0

   ID    Z sym.   atoms
    1   26 Fe     1, 39
    2    6 C      2-9, 11-15, 17-21, 23, 24, 37, 38, 40-47, 49-53, 55-59, 61,
                  62
    3    7 N      10, 16, 22, 25, 48, 54, 60, 63
    4    1 H      26-36, 64-74

          :  Hamiltonian                  GFN2-xTB          :
 * total energy  :  -129.9456835 Eh     change        0.5869595E-08 Eh
 * total energy  :  -130.4816116 Eh     change       -0.5359282E+00 Eh
 * total energy  :  -130.6421726 Eh     change       -0.1605610E+00 Eh
 * total energy  :  -130.7231926 Eh     change       -0.8101993E-01 Eh
 * total energy  :  -130.7807790 Eh     change       -0.5758648E-01 Eh
 * total energy  :  -130.8195719 Eh     change       -0.3879282E-01 Eh
 * total energy  :  -130.8463484 Eh     change       -0.2677650E-01 Eh
 * total energy  :  -130.8632497 Eh     change       -0.1690132E-01 Eh
 * total energy  :  -130.8732199 Eh     change       -0.9970237E-02 Eh
 * total energy  :  -130.8792211 Eh     change       -0.6001210E-02 Eh
 * total energy  :  -130.9168351 Eh     change       -0.1017361E-04 Eh
 * total energy  :  -130.9168460 Eh     change       -0.1091229E-04 Eh
 * total energy  :  -130.9168576 Eh     change       -0.1165067E-04 Eh
 * total energy  :  -130.9168699 Eh     change       -0.1224787E-04 Eh
 * total energy  :  -130.9168821 Eh     change       -0.1220526E-04 Eh
 * total energy  :  -130.9168936 Eh     change       -0.1145659E-04 Eh
 * total energy  :  -130.9169043 Eh     change       -0.1073550E-04 Eh
 * total energy  :  -130.9169141 Eh     change       -0.9791107E-05 Eh
 * total energy  :  -130.9169181 Eh     change       -0.4045205E-05 Eh
   *** GEOMETRY OPTIMIZATION CONVERGED AFTER 94 ITERATIONS ***

 final structure:
================
74
 xtb: 6.4.1 (bd6e46d)
Fe        9.30251575949005   -0.06151163888237    0.07236738755568
C        11.82545189156129   -3.42602568539373    0.80192876005054
C        12.73668125793377   -2.43803077423913    0.64525503130125
C        12.00512670763629   -1.24335598233492    0.33605198318205
C        12.63508301192696   -0.02832956602008    0.04514002796398
C        11.97659638436496    1.17433395616385   -0.23382752595222
C        12.67911888885227    2.38374513284871   -0.55315852731657
C        11.74588827817365    3.35351477511776   -0.69360749037979
C        10.47673737875812    2.72934202128763   -0.47235339738210
N        10.63048146550127    1.39588614620637   -0.20990509003423
C         9.26264009219137    3.38588566711961   -0.50172523550920
C         8.06352975106031    2.72797467332710   -0.31963154280746
C         6.77186261839359    3.35010453237759   -0.34948734766133
C         5.86661614846019    2.35962606430730   -0.18442646213767
C         6.60764249241156    1.13556359403332   -0.05231567107693
N         7.95005839707328    1.38139609134929   -0.12562154028868
C         5.99817659681734   -0.09494175804385    0.09669666978766
C         6.63449169702450   -1.31283747660556    0.23686432856119
C         5.92040121389700   -2.55158311702590    0.37996582974798
C         6.84781725361008   -3.52341829831537    0.53234055370371
C         8.12602789286151   -2.87527075508932    0.48363543592693
N         7.98252049834344   -1.53140343496874    0.29075441337664
C         9.34077151876128   -3.50858488459467    0.64846963765480
C        10.54071558514130   -2.82762814198118    0.60031368616600
N        10.66348652855371   -1.49165794659858    0.33428466077438
H        11.98921014162164   -4.46027316727379    1.03461027454581
H        13.80336744455948   -2.49050256385465    0.73912633895009
H        13.74292244353043    2.45794651094038   -0.66385540295533
H        11.88519870333703    4.39110568555634   -0.92735038444440
H         9.25216094780533    4.44994365397138   -0.68120664499806
H         6.60384044108379    4.40127090086472   -0.48345076287161
H         4.79603346530457    2.42710944428414   -0.15422107750517
H         4.91756295232342   -0.10587300653224    0.10449524934325
H         4.85108252258036   -2.64077776498311    0.36525438565542
H         6.70311012086429   -4.57769308908237    0.66907005675734
H         9.35461833874028   -4.57249884801602    0.82853493203450
C        14.04249308618937   -0.01462019252399    0.03182454939143
C        15.25443178373845   -0.00762039076697    0.01863637583566
Fe       19.99323550931749    0.06158176302905   -0.07235126677007
C        17.47619644119307    3.40337382705573    0.77151858775948
C        16.56573775450341    2.41228536069732    0.63049328802514
C        17.29378747433356    1.22553802723978    0.28456227878832
C        16.66168980516208    0.01062012634514   -0.00251975961511
C        17.31795343351310   -1.18630463058967   -0.30960364337416
C        16.61274660303192   -2.39717783477544   -0.61712318885866
C        17.54642386176432   -3.36116310565709   -0.79053155708781
C        18.81823982899348   -2.73176429917029   -0.60167330725192
N        18.66532865191253   -1.40099812705283   -0.32551421074587
C        20.03438779355182   -3.38141281544689   -0.67182499771966
C        21.23493116560066   -2.71793342547599   -0.52224564492880
C        22.52850998078535   -3.33231148229716   -0.59677161120123
C        23.43292101477115   -2.33756296900250   -0.45426477261643
C        22.68954548457549   -1.11868308931617   -0.29106581398849
N        21.34689941932938   -1.37196566794629   -0.32319187136402
C        23.29635827438108    0.11454620442580   -0.15420558629331
C        22.65784942843626    1.32756294236469    0.01525250080353
C        23.36894481374656    2.56961442056450    0.14387679341801
C        22.44147182615883    3.53430955313822    0.33610725173231
C        21.16626521581745    2.87855150289610    0.32579425440122
N        21.31113998173571    1.53729755114477    0.11644523699571
C        19.95413377340192    3.50260298566765    0.53832835212272
C        18.75722283223542    2.81482448031334    0.52287670341942
N        18.63343867843759    1.48124701016319    0.24546728738480
H        17.31421728430634    4.43375888630664    1.02190362937260
H        15.50219065796293    2.45758001885851    0.75788680287755
H        15.54658237475536   -2.47621260191133   -0.69751821325717
H        17.40573457910597   -4.39793521917999   -1.02707737245897
H        20.04513144166789   -4.44416340255802   -0.85889917363716
H        22.69816399290780   -4.38162224615950   -0.74271012439880
H        24.50428765300367   -2.39897329102002   -0.45838202781829
H        24.37656825580685    0.13199190835493   -0.18166603670637
H        24.43656601000443    2.66567387351244    0.09317973708358
H        22.58441949259586    4.58834727190792    0.47642650917412
H        19.94013251050878    4.56456412678220    0.72954750201717

          :  Hamiltonian                  GFN2-xTB          :
         :: gradient norm              0.000282633758 Eh/a0 ::
         :: HOMO-LUMO gap              0.190903550362 eV    ::
         :: SCC energy              -133.145779905593 Eh    ::
         :: -> dispersion             -0.104317035985 Eh    ::
         :: repulsion energy           2.229911545830 Eh    ::

    * Orbital Energies and Occupations

         #    Occupation            Energy/Eh            Energy/eV
      -------------------------------------------------------------
         1        2.0000           -0.6650831             -18.0978
       ...           ...                  ...                  ...
       111        2.0000           -0.3965696             -10.7912
       112        2.0000           -0.3964861             -10.7889
       113        2.0000           -0.3964275             -10.7873
       114        2.0000           -0.3677383             -10.0067
       115        2.0000           -0.3623725              -9.8607
       116        2.0000           -0.3623630              -9.8604
       117        2.0000           -0.3527203              -9.5980
       118        2.0000           -0.3379227              -9.1953
       119        2.0000           -0.3379202              -9.1953
       120        2.0000           -0.3360145              -9.1434
       121        2.0000           -0.3357291              -9.1357
       122        1.9542           -0.3274718              -8.9110
       123        1.9505           -0.3273967              -8.9089 (HOMO)
       124        0.0477           -0.3203806              -8.7180 (LUMO)
       125        0.0476           -0.3203785              -8.7179
       126                         -0.2987851              -8.1304
       127                         -0.2890966              -7.8667
       128                         -0.2890914              -7.8666
       129                         -0.2827704              -7.6946
       130                         -0.2557081              -6.9582
       131                         -0.2469351              -6.7194
       132                         -0.2184603              -5.9446
       133                         -0.2183994              -5.9430
       134                         -0.1858730              -5.0579
       ...                                ...                  ...
       240                          1.4121969              38.4278
      -------------------------------------------------------------
                  HL-Gap            0.0070161 Eh            0.1909 eV

     #   Z          covCN         q      C6AA      α(0)
     1  26 Fe       3.085     0.561     5.147     7.318
     2   6 C        3.015    -0.056    29.379     8.891
     3   6 C        3.024    -0.053    29.299     8.879
     4   6 C        3.172     0.065    26.180     8.358
     5   6 C        2.955     0.009    27.805     8.649
     6   6 C        3.172     0.065    26.180     8.358
     7   6 C        3.024    -0.053    29.301     8.879
     8   6 C        3.015    -0.056    29.379     8.891
     9   6 C        3.167     0.069    26.122     8.351
    10   7 N        2.638    -0.214    25.680     7.526
    11   6 C        2.903    -0.058    29.442     8.897
    12   6 C        3.166     0.070    26.109     8.350
    13   6 C        3.013    -0.055    29.351     8.887
    14   6 C        3.024    -0.054    29.308     8.880
    15   6 C        3.155     0.066    26.242     8.377
    16   7 N        2.639    -0.213    25.649     7.522
    17   6 C        2.903    -0.062    29.546     8.913
    18   6 C        3.155     0.066    26.242     8.377
    19   6 C        3.024    -0.054    29.308     8.880
    20   6 C        3.013    -0.055    29.351     8.887
    21   6 C        3.166     0.070    26.109     8.350
    22   7 N        2.639    -0.213    25.650     7.522
    23   6 C        2.903    -0.058    29.442     8.897
    24   6 C        3.167     0.069    26.121     8.351
    25   7 N        2.638    -0.214    25.679     7.526
    26   1 H        0.926     0.031     2.578     2.511
    27   1 H        0.926     0.034     2.535     2.490
    28   1 H        0.926     0.034     2.533     2.489
    29   1 H        0.926     0.031     2.578     2.511
    30   1 H        0.926     0.048     2.349     2.397
    31   1 H        0.926     0.031     2.577     2.510
    32   1 H        0.926     0.030     2.584     2.514
    33   1 H        0.926     0.048     2.344     2.394
    34   1 H        0.926     0.030     2.584     2.514
    35   1 H        0.926     0.031     2.577     2.510
    36   1 H        0.926     0.048     2.349     2.397
    37   6 C        1.995    -0.032    31.887     9.119
    38   6 C        1.995    -0.032    31.887     9.119
    39  26 Fe       3.085     0.561     5.147     7.318
    40   6 C        3.015    -0.056    29.379     8.891
    41   6 C        3.024    -0.054    29.302     8.879
    42   6 C        3.172     0.065    26.180     8.358
    43   6 C        2.955     0.009    27.805     8.649
    44   6 C        3.172     0.065    26.180     8.358
    45   6 C        3.024    -0.053    29.298     8.879
    46   6 C        3.015    -0.056    29.379     8.891
    47   6 C        3.167     0.069    26.122     8.351
    48   7 N        2.638    -0.214    25.680     7.526
    49   6 C        2.903    -0.058    29.442     8.897
    50   6 C        3.166     0.070    26.109     8.350
    51   6 C        3.013    -0.055    29.351     8.887
    52   6 C        3.024    -0.054    29.308     8.880
    53   6 C        3.155     0.066    26.242     8.377
    54   7 N        2.639    -0.213    25.650     7.522
    55   6 C        2.903    -0.062    29.546     8.913
    56   6 C        3.155     0.066    26.242     8.377
    57   6 C        3.024    -0.054    29.308     8.880
    58   6 C        3.013    -0.055    29.351     8.887
    59   6 C        3.166     0.070    26.109     8.350
    60   7 N        2.639    -0.213    25.650     7.522
    61   6 C        2.903    -0.058    29.442     8.897
    62   6 C        3.167     0.069    26.122     8.351
    63   7 N        2.638    -0.214    25.678     7.526
    64   1 H        0.926     0.031     2.578     2.511
    65   1 H        0.926     0.034     2.533     2.489
    66   1 H        0.926     0.034     2.535     2.490
    67   1 H        0.926     0.031     2.578     2.511
    68   1 H        0.926     0.048     2.350     2.397
    69   1 H        0.926     0.031     2.577     2.510
    70   1 H        0.926     0.030     2.584     2.514
    71   1 H        0.926     0.048     2.344     2.394
    72   1 H        0.926     0.030     2.584     2.514
    73   1 H        0.926     0.031     2.577     2.510
    74   1 H        0.926     0.048     2.349     2.397

Wiberg/Mayer (AO) data.
largest (>0.10) Wiberg bond orders for each atom

     #   Z sym  total        # sym  WBO       # sym  WBO       # sym  WBO
 ---------------------------------------------------------------------------
     1  26 Fe   3.272 --    16 N    0.660    22 N    0.660    25 N    0.655
                            10 N    0.654
     2   6 C    3.959 --     3 C    1.646    24 C    1.172    26 H    0.972
     3   6 C    3.962 --     2 C    1.646     4 C    1.178    27 H    0.967
     4   6 C    3.929 --     5 C    1.269    25 N    1.246     3 C    1.178
     5   6 C    3.952 --     6 C    1.269     4 C    1.269    37 C    1.156
     6   6 C    3.929 --     5 C    1.269    10 N    1.246     7 C    1.178
     7   6 C    3.962 --     8 C    1.646     6 C    1.178    28 H    0.967
     8   6 C    3.959 --     7 C    1.646     9 C    1.172    29 H    0.972
     9   6 C    3.938 --    11 C    1.358    10 N    1.228     8 C    1.172
    10   7 N    3.413 --     6 C    1.246     9 C    1.228     1 Fe   0.654
    11   6 C    3.943 --    12 C    1.360     9 C    1.358    30 H    0.965
    12   6 C    3.942 --    11 C    1.360    16 N    1.235    13 C    1.164
    13   6 C    3.962 --    14 C    1.660    12 C    1.164    31 H    0.972
    14   6 C    3.960 --    13 C    1.660    15 C    1.162    32 H    0.972
    15   6 C    3.943 --    17 C    1.360    16 N    1.229    14 C    1.162
    16   7 N    3.411 --    12 C    1.235    15 C    1.229     1 Fe   0.660
    17   6 C    3.942 --    15 C    1.360    18 C    1.360    33 H    0.963
    18   6 C    3.943 --    17 C    1.360    22 N    1.229    19 C    1.162
    19   6 C    3.960 --    20 C    1.660    18 C    1.162    34 H    0.972
    20   6 C    3.962 --    19 C    1.660    21 C    1.164    35 H    0.972
    21   6 C    3.942 --    23 C    1.360    22 N    1.235    20 C    1.164
    22   7 N    3.411 --    21 C    1.235    18 C    1.229     1 Fe   0.660
    23   6 C    3.943 --    21 C    1.360    24 C    1.358    36 H    0.965
    24   6 C    3.938 --    23 C    1.358    25 N    1.227     2 C    1.172
    25   7 N    3.414 --     4 C    1.246    24 C    1.227     1 Fe   0.655
    26   1 H    0.998 --     2 C    0.972
    27   1 H    0.998 --     3 C    0.967
    28   1 H    0.998 --     7 C    0.967
    29   1 H    0.998 --     8 C    0.972
    30   1 H    0.997 --    11 C    0.965
    31   1 H    0.998 --    13 C    0.972
    32   1 H    0.998 --    14 C    0.972
    33   1 H    0.997 --    17 C    0.963
    34   1 H    0.998 --    19 C    0.972
    35   1 H    0.998 --    20 C    0.972
    36   1 H    0.997 --    23 C    0.965
    37   6 C    3.931 --    38 C    2.597     5 C    1.156
    38   6 C    3.931 --    37 C    2.597    43 C    1.156
    39  26 Fe   3.272 --    54 N    0.660    60 N    0.660    63 N    0.655
                            48 N    0.654
    40   6 C    3.959 --    41 C    1.646    62 C    1.172    64 H    0.972
    41   6 C    3.962 --    40 C    1.646    42 C    1.178    65 H    0.967
    42   6 C    3.929 --    43 C    1.269    63 N    1.246    41 C    1.178
    43   6 C    3.952 --    44 C    1.269    42 C    1.269    38 C    1.156
    44   6 C    3.929 --    43 C    1.269    48 N    1.245    45 C    1.178
    45   6 C    3.962 --    46 C    1.646    44 C    1.178    66 H    0.967
    46   6 C    3.959 --    45 C    1.646    47 C    1.172    67 H    0.972
    47   6 C    3.938 --    49 C    1.358    48 N    1.228    46 C    1.172
    48   7 N    3.414 --    44 C    1.245    47 C    1.228    39 Fe   0.654
    49   6 C    3.943 --    50 C    1.360    47 C    1.358    68 H    0.965
    50   6 C    3.942 --    49 C    1.360    54 N    1.235    51 C    1.164
    51   6 C    3.962 --    52 C    1.660    50 C    1.164    69 H    0.972
    52   6 C    3.960 --    51 C    1.660    53 C    1.162    70 H    0.972
    53   6 C    3.943 --    55 C    1.360    54 N    1.229    52 C    1.162
    54   7 N    3.411 --    50 C    1.235    53 C    1.229    39 Fe   0.660
    55   6 C    3.942 --    53 C    1.360    56 C    1.360    71 H    0.963
    56   6 C    3.943 --    55 C    1.360    60 N    1.229    57 C    1.162
    57   6 C    3.960 --    58 C    1.660    56 C    1.162    72 H    0.972
    58   6 C    3.962 --    57 C    1.660    59 C    1.164    73 H    0.972
    59   6 C    3.942 --    61 C    1.360    60 N    1.235    58 C    1.164
    60   7 N    3.411 --    59 C    1.235    56 C    1.229    39 Fe   0.660
    61   6 C    3.943 --    59 C    1.360    62 C    1.359    74 H    0.965
    62   6 C    3.938 --    61 C    1.359    63 N    1.227    40 C    1.172
    63   7 N    3.414 --    42 C    1.246    62 C    1.227    39 Fe   0.655
    64   1 H    0.998 --    40 C    0.972
    65   1 H    0.998 --    41 C    0.967
    66   1 H    0.998 --    45 C    0.967
    67   1 H    0.998 --    46 C    0.972
    68   1 H    0.997 --    49 C    0.965
    69   1 H    0.998 --    51 C    0.972
    70   1 H    0.998 --    52 C    0.972
    71   1 H    0.997 --    55 C    0.963
    72   1 H    0.998 --    57 C    0.972
    73   1 H    0.998 --    58 C    0.972
    74   1 H    0.997 --    61 C    0.965
 ---------------------------------------------------------------------------

molecular dipole:
                 x           y           z       tot (Debye)
 q only:       -0.000       0.002      -0.003
   full:       -0.000       0.002      -0.006       0.015

 projected vibrational frequencies (cm⁻¹)
eigval :       -0.00    -0.00    -0.00    -0.00     0.00     0.00
eigval :        8.96     9.89    10.68    29.07    30.15    40.59
eigval :       43.00    63.33    73.96    76.13    92.79   102.38
eigval :      120.42   121.58   130.80   144.42   158.20   184.75
eigval :      185.75   210.94   211.17   213.74   220.27   222.03
eigval :      225.06   225.18   234.60   238.45   245.16   249.18
eigval :      257.43   258.29   263.07   279.86   280.49   308.90
eigval :      321.08   323.50   325.89   326.66   329.17   349.51
eigval :      364.75   368.04   376.19   386.52   386.88   392.72
eigval :      393.70   399.38   418.28   419.14   427.67   428.74
eigval :      432.72   434.95   464.21   464.41   505.46   519.67
eigval :      597.01   619.50   622.51   622.99   623.00   626.01
eigval :      626.15   638.98   639.28   643.20   643.98   657.97
eigval :      658.26   662.90   663.61   667.20   669.30   717.70
eigval :      718.19   721.79   722.37   757.06   760.52   760.97
eigval :      765.09   778.78   779.12   779.50   779.93   791.75
eigval :      798.12   798.45   801.98   802.78   804.42   809.18
eigval :      812.40   815.27   817.88   826.21   828.16   830.24
eigval :      832.11   836.33   837.07   838.99   840.39   841.38
eigval :      842.24   843.28   843.29   853.28   855.38   885.92
eigval :      948.78   980.67   981.57  1001.91  1002.24  1009.99
eigval :     1016.61  1016.64  1017.68  1021.86  1025.06  1031.59
eigval :     1032.04  1036.92  1040.29  1059.78  1062.48  1066.53
eigval :     1067.45  1070.08  1071.09  1073.26  1074.80  1086.36
eigval :     1134.10  1147.06  1147.50  1151.40  1171.15  1175.15
eigval :     1177.24  1183.71  1228.45  1231.93  1236.40  1237.07
eigval :     1281.05  1282.15  1288.52  1304.22  1306.67  1308.07
eigval :     1312.21  1312.94  1317.54  1326.71  1327.35  1327.55
eigval :     1332.37  1333.62  1341.99  1349.47  1360.38  1360.42
eigval :     1360.53  1448.04  1468.12  1469.87  1471.69  1476.23
eigval :     1487.31  1494.28  1494.80  1507.95  1508.76  1523.03
eigval :     1528.30  1529.91  1531.91  1542.83  1543.46  1555.25
eigval :     1556.44  1572.06  1572.35  1580.06  1580.88  1604.57
eigval :     1604.79  2271.41  3079.87  3079.90  3095.36  3095.43
eigval :     3095.48  3095.60  3146.23  3146.25  3146.68  3146.71
eigval :     3154.40  3154.44  3154.56  3154.62  3160.56  3160.58
eigval :     3160.77  3161.35  3171.61  3171.96  3173.19  3173.23

   temp. (K)  partition function   enthalpy   heat capacity  entropy
                                   cal/mol     cal/K/mol   cal/K/mol   J/K/mol
 298.15  VIB  0.112E+18            23320.913    157.633    141.751
         ROT  0.617E+08              888.752      2.981     38.628
         INT  0.690E+25            24209.665    160.614    180.379
         TR   0.199E+29             1481.254      4.968     45.705
         TOT                       25690.9188   165.5824   226.0841   945.9357

       T/K    H(0)-H(T)+PV         H(T)/Eh          T*S/Eh         G(T)/Eh
   ------------------------------------------------------------------------
    298.15    0.409411E-01    0.560575E+00    0.107420E+00    0.453155E+00
   ------------------------------------------------------------------------

         :::::::::::::::::::::::::::::::::::::::::::::::::::::
         ::                  THERMODYNAMIC                  ::
         :::::::::::::::::::::::::::::::::::::::::::::::::::::
         :: total free energy        -130.463763029461 Eh   ::
         ::.................................................::
         :: total energy             -130.916918162039 Eh   ::
         :: zero point energy           0.519633880484 Eh   ::
         :: G(RRHO) w/o ZPVE           -0.066478747905 Eh   ::
         :: G(RRHO) contrib.            0.453155132578 Eh   ::
         :::::::::::::::::::::::::::::::::::::::::::::::::::::

           -------------------------------------------------
          | TOTAL ENERGY             -130.916918162039 Eh   |
          | TOTAL ENTHALPY           -130.356343196455 Eh   |
          | TOTAL FREE ENERGY        -130.463763029461 Eh   |
          | GRADIENT NORM               0.000282579387 Eh/α |
          | HOMO-LUMO GAP               0.190916930223 eV   |
           -------------------------------------------------

 * finished run on 2021/11/19 at 10:24:27.106
