   * xtb version 6.4.1 (bd6e46d) compiled by 'conda@4901f00b25ba' on 2021-06-10
          program call               : /home/jeff/miniconda3/bin/xtb input_structure_1.xyz --gfn 2 --ohess normal --parallel 1 --etemp 300 --chrg 0 --uhf 0 -I det_control.in
          number of atoms            :                   115
          number of electrons        :                   370
          charge                     :                     0
          spin                       :                   0.0

   ID    Z sym.   atoms
    1   30 Zn     1, 37, 81
    2    6 C      2-9, 11-15, 17-21, 23, 24, 38-45, 47-51, 53-57, 59, 60,
                  73-80, 82-89, 91-95, 97-101, 103, 104
    3    7 N      10, 16, 22, 25, 46, 52, 58, 61, 90, 96, 102, 105
    4    1 H      26-36, 62-72, 106-115

          :  Hamiltonian                  GFN2-xTB          :
 * total energy  :  -197.7570826 Eh     change        0.1026669E-07 Eh
 * total energy  :  -197.9468495 Eh     change       -0.1897669E+00 Eh
 * total energy  :  -198.0539178 Eh     change       -0.1070684E+00 Eh
 * total energy  :  -198.1037341 Eh     change       -0.4981626E-01 Eh
 * total energy  :  -198.1367996 Eh     change       -0.3306550E-01 Eh
 * total energy  :  -198.1614426 Eh     change       -0.2464298E-01 Eh
 * total energy  :  -198.1806533 Eh     change       -0.1921079E-01 Eh
 * total energy  :  -198.1976091 Eh     change       -0.1695581E-01 Eh
 * total energy  :  -198.2157304 Eh     change       -0.1812127E-01 Eh
 * total energy  :  -198.2365841 Eh     change       -0.2085370E-01 Eh
 * total energy  :  -198.7409008 Eh     change       -0.4575233E-03 Eh
 * total energy  :  -198.7411682 Eh     change       -0.2674188E-03 Eh
 * total energy  :  -198.7412907 Eh     change       -0.1225667E-03 Eh
 * total energy  :  -198.7414019 Eh     change       -0.1111671E-03 Eh
 * total energy  :  -198.7415004 Eh     change       -0.9850150E-04 Eh
 * total energy  :  -198.7415991 Eh     change       -0.9864686E-04 Eh
 * total energy  :  -198.7416586 Eh     change       -0.5957384E-04 Eh
 * total energy  :  -198.7416729 Eh     change       -0.1432209E-04 Eh
 * total energy  :  -198.7416777 Eh     change       -0.4779316E-05 Eh
   *** GEOMETRY OPTIMIZATION CONVERGED AFTER 57 ITERATIONS ***

 final structure:
================
115
 xtb: 6.4.1 (bd6e46d)
Zn       14.47500312979034    0.00018630929128   -0.00729679465307
C        17.01105646095264   -3.43223340999491    0.04540003243703
C        17.96355089615098   -2.46859906589293    0.04652599728995
C        17.27353829499197   -1.21027726308400    0.02625475702361
C        17.91148331631423    0.04107702000605    0.01427212803782
C        17.24439108600229    1.27697681991134   -0.00161534133824
C        17.90437538697743    2.55134876674603   -0.00894270825928
C        16.92928949764490    3.49212510190848   -0.01867555406628
C        15.67705253816768    2.79018905857400   -0.01777554415979
N        15.90067322505927    1.44589260196500   -0.00786861481918
C        14.43516532286258    3.40314449100893   -0.02462737060365
C        13.20873997894952    2.75967372949001   -0.02568751025372
C        11.93477335607783    3.42646889576627   -0.03314551560616
C        10.98872959250649    2.45871056095573   -0.03552793338837
C        11.68396897443037    1.19965123363344   -0.02953672511578
N        13.02566510164099    1.41319791266426   -0.02248338884334
C        11.06654166563922   -0.04056027943539   -0.03349785764602
C        11.71324084654210   -1.26579194763597   -0.02807308460360
C        11.04816455534382   -2.54107622462303   -0.03394684689021
C        12.01689804048416   -3.48605176469108   -0.02205865455279
C        13.27454797628621   -2.78904764787512   -0.00857666195157
N        13.05954415967101   -1.44729990917238   -0.01409938078794
C        14.51586866519057   -3.40295007873839    0.01094765044131
C        15.74267154623516   -2.76041090761132    0.02415678573469
N        15.93429542640791   -1.41115212474731    0.01504583548249
H        17.14031754732323   -4.49731015561607    0.05722306547932
H        19.03046279484850   -2.58105054954038    0.05954018161520
H        18.96841746500141    2.68888038893769   -0.00591066993400
H        17.03315374321798    4.56007817909630   -0.02574207595086
H        14.42314902216601    4.48427275311551   -0.03010944477875
H        11.80165793622350    4.49137585653084   -0.03635953531276
H         9.92108453822582    2.56758871947237   -0.04100499037942
H         9.98561596049096   -0.05340279554125   -0.04172464945075
H         9.98347275175059   -2.67540051513156   -0.04544932567526
H        11.90922387682282   -4.55386438993044   -0.02209563041862
H        14.52976383500995   -4.48405112242516    0.01635693380599
Zn       41.37632738246295    0.03131449288924   -0.00537421463388
C        38.85174452968764    3.40947475404500    0.65188473240563
C        37.89585809485677    2.46503188197298    0.47840589710583
C        38.58157229342820    1.22747664785611    0.23664162424297
C        37.93969634926975   -0.00091060175769    0.00895818194755
C        38.60261648815194   -1.21764133232896   -0.22032354381929
C        37.93820394880082   -2.46830332852143   -0.45290818593163
C        38.90996989319920   -3.39526992758974   -0.63248766967331
C        40.16464997052386   -2.70849751395930   -0.51002786622607
N        39.94576448726298   -1.38688495234062   -0.25974222729632
C        41.40434266966592   -3.31379894476909   -0.63151745889712
C        42.63296404084896   -2.68410393803382   -0.52131515888213
C        43.90460207848702   -3.34243433264697   -0.65255938910205
C        44.85398175191852   -2.39325370538311   -0.48142532072562
C        44.16312349176766   -1.15399564123969   -0.24578750050345
N        42.82069962705235   -1.36095125407908   -0.27538184283277
C        44.78481045305847    0.06400395403885   -0.02381772057181
C        44.14233892248926    1.26996898716224    0.20478551603651
C        44.81185763880829    2.52250730824955    0.43183071617966
C        43.84639105469920    3.45341824193944    0.61305757209259
C        42.58628484214454    2.77053855319512    0.49709595846796
N        42.79662572215779    1.45108353539864    0.24944426431788
C        41.34703267261615    3.37616605156551    0.62226122579240
C        40.11789136344827    2.74701957578738    0.51478564428138
N        39.92158971927932    1.42193968179148    0.26416585317907
H        38.72624534206602    4.45570025340663    0.85391142919052
H        36.82932617352439    2.57736469945420    0.50985641823735
H        36.87376774994933   -2.60076266341086   -0.47299687628418
H        38.80232478022649   -4.44445597778978   -0.82984675876933
H        41.41255455506569   -4.37634351727876   -0.83135045303040
H        44.03398343975294   -4.38952082659952   -0.84908717154683
H        45.92123192817805   -2.50267107162376   -0.50880334673424
H        45.86577997621134    0.07435606464700   -0.02962224965861
H        45.87704296088873    2.65251037963681    0.44697878788867
H        43.95782205112089    4.50306512596856    0.80698514001737
H        41.33693442408941    4.43868213609993    0.82217750226423
C        19.31009599305623    0.05546530756308    0.01643367124144
C        20.52836791527580    0.06174871862382    0.01235218670659
C        21.87041349567209    0.06383132166129    0.00719874294614
C        23.08880140509431    0.06046801519490    0.00017800584219
C        32.76210846880306   -0.01457450950206   -0.00990663388067
C        33.98039546066261   -0.01735059970538   -0.00338365766868
C        35.32260053121841   -0.01495876694729    0.00393166962398
C        36.54079278432621   -0.01208850762897    0.00809587930015
Zn       27.92534674524427    0.02187871856973   -0.01289814800389
C        25.40411707935964   -3.39729739397381    0.38235325859147
C        24.44704711741652   -2.44349653729324    0.27817717052686
C        25.13109862547973   -1.19075131999434    0.13305278082705
C        24.48687588175832    0.05005887844739   -0.00454750731800
C        25.15047170626992    1.27986114036004   -0.14722885022850
C        24.48613231802206    2.54343043438952   -0.29131858203975
C        25.45814645023742    3.48141281788850   -0.40060723010977
C        26.71187569377708    2.78798079631612   -0.32305929312181
N        26.49341818978522    1.45131723549494   -0.16995251019586
C        27.95194362220778    3.39956744268155   -0.39264937858437
C        29.18218561783985    2.76861039459324   -0.32080803288941
C        30.44673857479282    3.44240421738503   -0.39606082860840
C        31.40380976353780    2.48902247490119   -0.28842702345441
C        30.71965265063020    1.23566167075257   -0.14806948388479
N        29.37951660714574    1.42843089380735   -0.17018157857763
C        31.36377876141830   -0.00549969050940   -0.01405921676482
C        30.70031634977243   -1.23654504739179    0.11721680104566
C        31.36461817314834   -2.50090384769534    0.25439458008538
C        30.39261596993326   -3.43911806145028    0.36170495523778
C        29.13886840272274   -2.74504893819415    0.28967814971703
N        29.35732065118529   -1.40798191471496    0.14022053122147
C        27.89884521778877   -3.35602106999048    0.36482579008585
C        26.66861955344511   -2.72430079363557    0.30003619816897
N        26.47118762920948   -1.38415139125501    0.14913765851072
H        25.27985729527391   -4.45613394379118    0.50348995872584
H        23.38061431643422   -2.55929845953401    0.29630739206026
H        23.42166067434170    2.67642248854702   -0.30530428436161
H        25.35072165891828    4.54199773712201   -0.52221740482614
H        27.96049857074896    4.47395661990860   -0.51425563045179
H        30.57102341729734    4.50141887419448   -0.51542305664801
H        32.47025415030632    2.60534280383027   -0.30231252018850
H        32.42911421349320   -2.63421616839555    0.26583832746137
H        30.50005889072848   -4.50026527417288    0.47908172282482
H        27.89034002807036   -4.43043980920957    0.48623435473031

          :  Hamiltonian                  GFN2-xTB          :
         :: gradient norm              0.000489548768 Eh/a0 ::
         :: HOMO-LUMO gap              1.033666644348 eV    ::
         :: SCC energy              -202.410882572951 Eh    ::
         :: -> dispersion             -0.181795373727 Eh    ::
         :: repulsion energy           3.671804507191 Eh    ::

    * Orbital Energies and Occupations

         #    Occupation            Energy/Eh            Energy/eV
      -------------------------------------------------------------
         1        2.0000           -0.6675964             -18.1662
       ...           ...                  ...                  ...
       173        2.0000           -0.4000153             -10.8850
       174        2.0000           -0.3922492             -10.6736
       175        2.0000           -0.3897387             -10.6053
       176        2.0000           -0.3895101             -10.5991
       177        2.0000           -0.3873617             -10.5406
       178        2.0000           -0.3860032             -10.5037
       179        2.0000           -0.3859787             -10.5030
       180        2.0000           -0.3699718             -10.0674
       181        2.0000           -0.3696622             -10.0590
       182        2.0000           -0.3689769             -10.0404
       183        2.0000           -0.3689658             -10.0401
       184        2.0000           -0.3604666              -9.8088
       185        2.0000           -0.3507601              -9.5447 (HOMO)
       186                         -0.3127735              -8.5110 (LUMO)
       187                         -0.3022123              -8.2236
       188                         -0.2992046              -8.1418
       189                         -0.2983011              -8.1172
       190                         -0.2982882              -8.1168
       191                         -0.2933898              -7.9835
       192                         -0.2689006              -7.3172
       193                         -0.2597758              -7.0689
       194                         -0.2558695              -6.9626
       195                         -0.2259512              -6.1484
       196                         -0.2253320              -6.1316
       ...                                ...                  ...
       364                          1.6316621              44.3998
      -------------------------------------------------------------
                  HL-Gap            0.0379866 Eh            1.0337 eV

     #   Z          covCN         q      C6AA      α(0)
     1  30 Zn       3.042     0.245   122.299    21.603
     2   6 C        3.020    -0.052    29.267     8.874
     3   6 C        3.018    -0.050    29.228     8.868
     4   6 C        3.166     0.077    25.944     8.324
     5   6 C        2.953     0.017    27.630     8.621
     6   6 C        3.165     0.077    25.946     8.324
     7   6 C        3.018    -0.050    29.226     8.868
     8   6 C        3.020    -0.052    29.267     8.874
     9   6 C        3.149     0.076    26.053     8.349
    10   7 N        2.632    -0.177    24.837     7.402
    11   6 C        2.901    -0.050    29.236     8.866
    12   6 C        3.145     0.077    26.040     8.349
    13   6 C        3.017    -0.051    29.245     8.871
    14   6 C        3.018    -0.051    29.248     8.871
    15   6 C        3.145     0.077    26.029     8.347
    16   7 N        2.635    -0.175    24.791     7.395
    17   6 C        2.901    -0.052    29.280     8.872
    18   6 C        3.145     0.077    26.029     8.347
    19   6 C        3.018    -0.051    29.248     8.871
    20   6 C        3.017    -0.051    29.245     8.871
    21   6 C        3.145     0.077    26.039     8.349
    22   7 N        2.634    -0.175    24.792     7.395
    23   6 C        2.901    -0.050    29.235     8.865
    24   6 C        3.149     0.076    26.053     8.349
    25   7 N        2.632    -0.177    24.835     7.401
    26   1 H        0.926     0.034     2.535     2.490
    27   1 H        0.926     0.035     2.511     2.478
    28   1 H        0.926     0.035     2.510     2.478
    29   1 H        0.926     0.034     2.535     2.490
    30   1 H        0.926     0.049     2.330     2.387
    31   1 H        0.926     0.034     2.527     2.486
    32   1 H        0.926     0.034     2.528     2.486
    33   1 H        0.926     0.048     2.339     2.391
    34   1 H        0.926     0.034     2.528     2.486
    35   1 H        0.926     0.034     2.527     2.486
    36   1 H        0.926     0.049     2.330     2.387
    37  30 Zn       3.042     0.245   122.299    21.603
    38   6 C        3.020    -0.052    29.267     8.874
    39   6 C        3.018    -0.050    29.228     8.868
    40   6 C        3.166     0.077    25.946     8.324
    41   6 C        2.953     0.017    27.630     8.621
    42   6 C        3.166     0.077    25.945     8.324
    43   6 C        3.018    -0.050    29.227     8.868
    44   6 C        3.020    -0.052    29.267     8.874
    45   6 C        3.149     0.076    26.052     8.349
    46   7 N        2.632    -0.177    24.837     7.402
    47   6 C        2.901    -0.050    29.236     8.866
    48   6 C        3.145     0.077    26.039     8.349
    49   6 C        3.017    -0.051    29.245     8.871
    50   6 C        3.018    -0.051    29.248     8.871
    51   6 C        3.145     0.077    26.029     8.347
    52   7 N        2.635    -0.175    24.792     7.395
    53   6 C        2.901    -0.052    29.280     8.872
    54   6 C        3.145     0.077    26.029     8.347
    55   6 C        3.018    -0.051    29.248     8.871
    56   6 C        3.017    -0.051    29.245     8.871
    57   6 C        3.145     0.077    26.039     8.349
    58   7 N        2.634    -0.175    24.792     7.395
    59   6 C        2.901    -0.050    29.236     8.866
    60   6 C        3.149     0.076    26.053     8.349
    61   7 N        2.632    -0.177    24.836     7.402
    62   1 H        0.926     0.034     2.535     2.490
    63   1 H        0.926     0.035     2.510     2.477
    64   1 H        0.926     0.035     2.510     2.477
    65   1 H        0.926     0.034     2.535     2.490
    66   1 H        0.926     0.049     2.331     2.387
    67   1 H        0.926     0.034     2.527     2.486
    68   1 H        0.926     0.034     2.528     2.486
    69   1 H        0.926     0.048     2.339     2.392
    70   1 H        0.926     0.034     2.528     2.487
    71   1 H        0.926     0.034     2.527     2.486
    72   1 H        0.926     0.049     2.331     2.387
    73   6 C        1.996    -0.021    31.588     9.077
    74   6 C        1.963    -0.010    31.335     9.040
    75   6 C        1.963    -0.010    31.322     9.038
    76   6 C        1.996    -0.021    31.603     9.079
    77   6 C        1.996    -0.021    31.602     9.079
    78   6 C        1.963    -0.009    31.321     9.038
    79   6 C        1.963    -0.010    31.335     9.040
    80   6 C        1.996    -0.021    31.587     9.076
    81  30 Zn       3.038     0.246   122.276    21.601
    82   6 C        3.021    -0.052    29.263     8.873
    83   6 C        3.018    -0.050    29.228     8.868
    84   6 C        3.167     0.077    25.936     8.322
    85   6 C        2.953     0.017    27.625     8.621
    86   6 C        3.167     0.077    25.936     8.322
    87   6 C        3.018    -0.050    29.227     8.868
    88   6 C        3.020    -0.052    29.263     8.873
    89   6 C        3.150     0.075    26.057     8.349
    90   7 N        2.632    -0.177    24.841     7.402
    91   6 C        2.901    -0.048    29.186     8.858
    92   6 C        3.150     0.075    26.057     8.349
    93   6 C        3.020    -0.052    29.263     8.873
    94   6 C        3.018    -0.050    29.229     8.868
    95   6 C        3.167     0.077    25.936     8.322
    96   7 N        2.632    -0.177    24.839     7.402
    97   6 C        2.953     0.017    27.625     8.621
    98   6 C        3.167     0.077    25.936     8.322
    99   6 C        3.018    -0.050    29.227     8.868
   100   6 C        3.020    -0.052    29.263     8.873
   101   6 C        3.150     0.075    26.057     8.349
   102   7 N        2.632    -0.177    24.841     7.402
   103   6 C        2.901    -0.048    29.186     8.858
   104   6 C        3.150     0.075    26.057     8.349
   105   7 N        2.632    -0.177    24.839     7.402
   106   1 H        0.926     0.034     2.534     2.489
   107   1 H        0.926     0.035     2.510     2.478
   108   1 H        0.926     0.035     2.510     2.477
   109   1 H        0.926     0.034     2.534     2.489
   110   1 H        0.925     0.050     2.323     2.383
   111   1 H        0.926     0.034     2.534     2.489
   112   1 H        0.926     0.036     2.509     2.477
   113   1 H        0.926     0.036     2.509     2.477
   114   1 H        0.926     0.034     2.534     2.489
   115   1 H        0.925     0.050     2.323     2.383

Wiberg/Mayer (AO) data.
largest (>0.10) Wiberg bond orders for each atom

     #   Z sym  total        # sym  WBO       # sym  WBO       # sym  WBO
 ---------------------------------------------------------------------------
     1  30 Zn   2.081 --    16 N    0.491    22 N    0.491    25 N    0.489
                            10 N    0.489
     2   6 C    3.953 --     3 C    1.650    24 C    1.171    26 H    0.972
     3   6 C    3.957 --     2 C    1.650     4 C    1.179    27 H    0.971
     4   6 C    3.912 --    25 N    1.286     5 C    1.252     3 C    1.179
     5   6 C    3.941 --     6 C    1.252     4 C    1.252    73 C    1.184
     6   6 C    3.912 --    10 N    1.286     5 C    1.252     7 C    1.179
     7   6 C    3.957 --     8 C    1.650     6 C    1.179    28 H    0.971
     8   6 C    3.953 --     7 C    1.650     9 C    1.171    29 H    0.972
     9   6 C    3.924 --    11 C    1.357    10 N    1.247     8 C    1.171
    10   7 N    3.467 --     6 C    1.286     9 C    1.247     1 Zn   0.489
    11   6 C    3.931 --     9 C    1.357    12 C    1.354    30 H    0.964
    12   6 C    3.929 --    11 C    1.354    16 N    1.261    13 C    1.163
    13   6 C    3.957 --    14 C    1.666    12 C    1.163    31 H    0.972
    14   6 C    3.955 --    13 C    1.666    15 C    1.162    32 H    0.972
    15   6 C    3.932 --    17 C    1.354    16 N    1.263    14 C    1.162
    16   7 N    3.464 --    15 C    1.263    12 C    1.261     1 Zn   0.491
    17   6 C    3.926 --    15 C    1.354    18 C    1.354    33 H    0.964
    18   6 C    3.932 --    17 C    1.354    22 N    1.263    19 C    1.162
    19   6 C    3.955 --    20 C    1.666    18 C    1.162    34 H    0.972
    20   6 C    3.957 --    19 C    1.666    21 C    1.163    35 H    0.972
    21   6 C    3.929 --    23 C    1.354    22 N    1.261    20 C    1.163
    22   7 N    3.464 --    18 C    1.263    21 C    1.261     1 Zn   0.491
    23   6 C    3.931 --    24 C    1.358    21 C    1.354    36 H    0.964
    24   6 C    3.924 --    23 C    1.358    25 N    1.247     2 C    1.171
    25   7 N    3.467 --     4 C    1.286    24 C    1.247     1 Zn   0.489
    26   1 H    0.998 --     2 C    0.972
    27   1 H    0.998 --     3 C    0.971
    28   1 H    0.998 --     7 C    0.971
    29   1 H    0.998 --     8 C    0.972
    30   1 H    0.996 --    11 C    0.964
    31   1 H    0.998 --    13 C    0.972
    32   1 H    0.998 --    14 C    0.972
    33   1 H    0.996 --    17 C    0.964
    34   1 H    0.998 --    19 C    0.972
    35   1 H    0.998 --    20 C    0.972
    36   1 H    0.996 --    23 C    0.964
    37  30 Zn   2.081 --    52 N    0.491    58 N    0.491    46 N    0.489
                            61 N    0.489
    38   6 C    3.953 --    39 C    1.651    60 C    1.171    62 H    0.972
    39   6 C    3.957 --    38 C    1.651    40 C    1.179    63 H    0.971
    40   6 C    3.912 --    61 N    1.286    41 C    1.252    39 C    1.179
    41   6 C    3.941 --    42 C    1.253    40 C    1.252    80 C    1.183
    42   6 C    3.912 --    46 N    1.286    41 C    1.253    43 C    1.179
    43   6 C    3.957 --    44 C    1.651    42 C    1.179    64 H    0.971
    44   6 C    3.953 --    43 C    1.651    45 C    1.171    65 H    0.972
    45   6 C    3.924 --    47 C    1.357    46 N    1.247    44 C    1.171
    46   7 N    3.467 --    42 C    1.286    45 C    1.247    37 Zn   0.489
    47   6 C    3.931 --    45 C    1.357    48 C    1.354    66 H    0.964
    48   6 C    3.929 --    47 C    1.354    52 N    1.261    49 C    1.163
    49   6 C    3.957 --    50 C    1.666    48 C    1.163    67 H    0.972
    50   6 C    3.955 --    49 C    1.666    51 C    1.162    68 H    0.972
    51   6 C    3.932 --    53 C    1.354    52 N    1.263    50 C    1.162
    52   7 N    3.464 --    51 C    1.263    48 C    1.261    37 Zn   0.491
    53   6 C    3.926 --    51 C    1.354    54 C    1.354    69 H    0.964
    54   6 C    3.932 --    53 C    1.354    58 N    1.263    55 C    1.162
    55   6 C    3.955 --    56 C    1.666    54 C    1.162    70 H    0.972
    56   6 C    3.957 --    55 C    1.666    57 C    1.163    71 H    0.972
    57   6 C    3.929 --    59 C    1.354    58 N    1.261    56 C    1.163
    58   7 N    3.464 --    54 C    1.263    57 C    1.261    37 Zn   0.491
    59   6 C    3.931 --    60 C    1.357    57 C    1.354    72 H    0.964
    60   6 C    3.924 --    59 C    1.357    61 N    1.247    38 C    1.171
    61   7 N    3.467 --    40 C    1.286    60 C    1.247    37 Zn   0.489
    62   1 H    0.998 --    38 C    0.972
    63   1 H    0.998 --    39 C    0.971
    64   1 H    0.998 --    43 C    0.971
    65   1 H    0.998 --    44 C    0.972
    66   1 H    0.996 --    47 C    0.964
    67   1 H    0.998 --    49 C    0.972
    68   1 H    0.998 --    50 C    0.972
    69   1 H    0.996 --    53 C    0.964
    70   1 H    0.998 --    55 C    0.972
    71   1 H    0.998 --    56 C    0.972
    72   1 H    0.996 --    59 C    0.964
    73   6 C    3.918 --    74 C    2.470     5 C    1.184    76 C    0.203
    74   6 C    3.928 --    73 C    2.470    75 C    1.305
    75   6 C    3.925 --    76 C    2.469    74 C    1.305
    76   6 C    3.919 --    75 C    2.469    85 C    1.187    73 C    0.203
    77   6 C    3.919 --    78 C    2.470    97 C    1.185    80 C    0.203
    78   6 C    3.925 --    77 C    2.470    79 C    1.304
    79   6 C    3.928 --    80 C    2.471    78 C    1.304
    80   6 C    3.917 --    79 C    2.471    41 C    1.183    77 C    0.203
    81  30 Zn   2.077 --   105 N    0.489    96 N    0.489    90 N    0.489
                           102 N    0.489
    82   6 C    3.954 --    83 C    1.648   104 C    1.173   106 H    0.972
    83   6 C    3.955 --    82 C    1.648    84 C    1.181   107 H    0.971
    84   6 C    3.912 --   105 N    1.287    85 C    1.249    83 C    1.181
    85   6 C    3.930 --    86 C    1.250    84 C    1.249    76 C    1.187
    86   6 C    3.912 --    90 N    1.287    85 C    1.250    87 C    1.181
    87   6 C    3.955 --    88 C    1.648    86 C    1.181   108 H    0.971
    88   6 C    3.954 --    87 C    1.648    89 C    1.173   109 H    0.972
    89   6 C    3.923 --    91 C    1.356    90 N    1.245    88 C    1.173
    90   7 N    3.461 --    86 C    1.287    89 C    1.245    81 Zn   0.489
    91   6 C    3.926 --    89 C    1.356    92 C    1.356   110 H    0.964
    92   6 C    3.923 --    91 C    1.356    96 N    1.245    93 C    1.173
    93   6 C    3.954 --    94 C    1.648    92 C    1.173   111 H    0.972
    94   6 C    3.955 --    93 C    1.648    95 C    1.181   112 H    0.971
    95   6 C    3.912 --    96 N    1.287    97 C    1.250    94 C    1.181
    96   7 N    3.461 --    95 C    1.287    92 C    1.245    81 Zn   0.489
    97   6 C    3.930 --    98 C    1.250    95 C    1.250    77 C    1.185
    98   6 C    3.912 --   102 N    1.287    97 C    1.250    99 C    1.181
    99   6 C    3.955 --   100 C    1.648    98 C    1.181   113 H    0.971
   100   6 C    3.954 --    99 C    1.648   101 C    1.173   114 H    0.972
   101   6 C    3.923 --   103 C    1.356   102 N    1.245   100 C    1.173
   102   7 N    3.460 --    98 C    1.287   101 C    1.245    81 Zn   0.489
   103   6 C    3.926 --   104 C    1.356   101 C    1.356   115 H    0.964
   104   6 C    3.923 --   103 C    1.356   105 N    1.245    82 C    1.173
   105   7 N    3.461 --    84 C    1.287   104 C    1.245    81 Zn   0.489
   106   1 H    0.998 --    82 C    0.972
   107   1 H    0.998 --    83 C    0.971
   108   1 H    0.998 --    87 C    0.971
   109   1 H    0.998 --    88 C    0.972
   110   1 H    0.996 --    91 C    0.964
   111   1 H    0.998 --    93 C    0.972
   112   1 H    0.998 --    94 C    0.971
   113   1 H    0.998 --    99 C    0.971
   114   1 H    0.998 --   100 C    0.972
   115   1 H    0.996 --   103 C    0.964
 ---------------------------------------------------------------------------

molecular dipole:
                 x           y           z       tot (Debye)
 q only:       -0.000      -0.001      -0.003
   full:       -0.000      -0.001      -0.005       0.012

 projected vibrational frequencies (cm⁻¹)
eigval :       -0.00     0.00     0.00     0.00     0.00     0.00
eigval :        3.13     3.85     4.52     5.98     9.28    10.19
eigval :       15.63    25.65    28.56    38.98    40.20    41.47
eigval :       41.70    45.47    50.80    57.22    67.74    73.01
eigval :       73.23    79.00    94.46    97.80   113.63   124.83
eigval :      127.60   127.73   127.88   144.91   146.68   152.54
eigval :      153.15   166.00   167.44   168.64   174.67   181.05
eigval :      181.10   181.52   190.72   195.67   196.24   198.43
eigval :      198.48   198.59   198.63   198.79   200.16   202.73
eigval :      202.93   203.85   203.98   208.62   221.27   224.49
eigval :      259.59   260.46   262.32   262.98   263.09   280.57
eigval :      304.92   307.83   312.59   319.21   319.97   325.27
eigval :      326.90   337.75   337.89   354.08   358.02   359.02
eigval :      360.39   361.12   364.13   365.85   368.43   372.05
eigval :      372.14   376.10   379.10   382.69   382.92   386.86
eigval :      386.99   390.78   396.77   397.61   397.70   403.79
eigval :      426.64   426.81   428.01   431.72   431.80   452.80
eigval :      455.73   455.80   458.55   505.78   509.28   510.67
eigval :      513.95   517.73   527.99   623.29   624.11   624.26
eigval :      624.71   628.01   628.14   631.28   631.43   634.51
eigval :      642.37   646.12   646.23   648.26   648.39   655.61
eigval :      660.09   660.76   660.94   663.34   663.49   671.82
eigval :      674.28   674.51   676.23   720.92   721.00   731.31
eigval :      731.39   756.78   759.70   760.67   760.69   760.92
eigval :      763.66   765.36   765.55   776.07   776.08   780.05
eigval :      780.23   796.77   797.65   798.44   799.34   799.74
eigval :      799.81   805.12   807.51   807.60   807.83   812.91
eigval :      812.94   817.99   818.40   819.67   819.76   820.30
eigval :      820.45   829.66   829.70   836.86   836.92   838.14
eigval :      838.69   840.21   840.28   843.60   843.70   844.30
eigval :      846.10   846.56   846.78   847.43   847.48   847.86
eigval :      848.52   848.64   848.75   932.14   934.01   988.31
eigval :      989.20   994.41  1002.08  1003.49  1003.58  1005.55
eigval :     1016.03  1025.94  1025.96  1026.39  1028.05  1034.87
eigval :     1036.29  1036.30  1036.70  1037.72  1037.96  1041.62
eigval :     1045.76  1045.83  1050.34  1067.76  1067.78  1068.49
eigval :     1069.18  1069.61  1070.17  1070.57  1071.07  1071.62
eigval :     1072.59  1073.23  1073.77  1127.79  1135.91  1149.76
eigval :     1155.45  1155.50  1158.46  1169.76  1169.92  1171.04
eigval :     1176.75  1176.79  1213.49  1225.72  1225.77  1225.79
eigval :     1233.23  1239.82  1240.35  1241.93  1272.46  1285.89
eigval :     1285.92  1296.26  1300.92  1301.41  1301.45  1302.30
eigval :     1305.44  1317.07  1318.07  1318.12  1326.49  1330.09
eigval :     1333.85  1334.33  1342.75  1342.79  1347.30  1348.01
eigval :     1348.14  1349.94  1360.52  1365.20  1365.93  1367.14
eigval :     1367.19  1400.89  1402.73  1443.54  1447.98  1449.31
eigval :     1449.44  1454.02  1461.94  1467.74  1475.31  1475.71
eigval :     1496.02  1498.14  1499.18  1503.92  1507.89  1507.92
eigval :     1510.37  1514.00  1514.06  1514.47  1515.03  1521.56
eigval :     1521.62  1531.32  1531.36  1537.51  1543.18  1549.69
eigval :     1549.75  1555.00  1555.10  1564.32  1564.77  1566.34
eigval :     1591.94  1598.77  1598.79  2224.01  2228.54  2233.11
eigval :     2233.41  3077.02  3077.46  3077.63  3077.64  3078.11
eigval :     3078.19  3079.37  3079.45  3146.04  3146.09  3146.42
eigval :     3146.44  3150.61  3150.72  3150.95  3151.04  3151.21
eigval :     3151.40  3151.45  3151.79  3159.66  3159.67  3160.60
eigval :     3160.72  3164.56  3164.77  3165.17  3165.55  3165.72
eigval :     3166.00  3166.10  3166.31

   temp. (K)  partition function   enthalpy   heat capacity  entropy
                                   cal/mol     cal/K/mol   cal/K/mol   J/K/mol
 298.15  VIB  0.325E+34            40423.461    259.995    255.634
         ROT  0.845E+09              888.752      2.981     43.829
         INT  0.275E+43            41312.214    262.976    299.462
         TR   0.409E+29             1481.254      4.968     47.136
         TOT                       42793.4676   267.9443   346.5985  1450.1681

       T/K    H(0)-H(T)+PV         H(T)/Eh          T*S/Eh         G(T)/Eh
   ------------------------------------------------------------------------
    298.15    0.681957E-01    0.859752E+00    0.164680E+00    0.695072E+00
   ------------------------------------------------------------------------

         :::::::::::::::::::::::::::::::::::::::::::::::::::::
         ::                  THERMODYNAMIC                  ::
         :::::::::::::::::::::::::::::::::::::::::::::::::::::
         :: total free energy        -198.046605762356 Eh   ::
         ::.................................................::
         :: total energy             -198.741677726754 Eh   ::
         :: zero point energy           0.791556363092 Eh   ::
         :: G(RRHO) w/o ZPVE           -0.096484398694 Eh   ::
         :: G(RRHO) contrib.            0.695071964398 Eh   ::
         :::::::::::::::::::::::::::::::::::::::::::::::::::::

           -------------------------------------------------
          | TOTAL ENERGY             -198.741677726754 Eh   |
          | TOTAL ENTHALPY           -197.881925632148 Eh   |
          | TOTAL FREE ENERGY        -198.046605762356 Eh   |
          | GRADIENT NORM               0.000489502516 Eh/α |
          | HOMO-LUMO GAP               1.033666852945 eV   |
           -------------------------------------------------

 * finished run on 2021/11/18 at 18:45:59.629
