   * xtb version 6.4.1 (bd6e46d) compiled by 'conda@4901f00b25ba' on 2021-06-10
          program call               : /home/jeff/miniconda3/bin/xtb input_structure_1.xyz --gfn 2 --ohess normal --parallel 1 --etemp 300 --chrg 0 --uhf 0 -I det_control.in
          number of atoms            :                    78
          number of electrons        :                   250
          charge                     :                     0
          spin                       :                   0.0

   ID    Z sym.   atoms
    1   30 Zn     1, 43
    2    6 C      2-9, 11-15, 17-21, 23, 24, 37-42, 44-51, 53-57, 59-63, 65,
                  66
    3    7 N      10, 16, 22, 25, 52, 58, 64, 67
    4    1 H      26-36, 68-78

          :  Hamiltonian                  GFN2-xTB          :
 * total energy  :  -133.5094012 Eh     change       -0.4187996E-08 Eh
 * total energy  :  -133.9381859 Eh     change       -0.4287846E+00 Eh
 * total energy  :  -134.0470946 Eh     change       -0.1089087E+00 Eh
 * total energy  :  -134.1027132 Eh     change       -0.5561868E-01 Eh
 * total energy  :  -134.1313441 Eh     change       -0.2863085E-01 Eh
 * total energy  :  -134.1508394 Eh     change       -0.1949533E-01 Eh
 * total energy  :  -134.1650260 Eh     change       -0.1418662E-01 Eh
 * total energy  :  -134.1753642 Eh     change       -0.1033820E-01 Eh
 * total energy  :  -134.1832691 Eh     change       -0.7904856E-02 Eh
 * total energy  :  -134.1899017 Eh     change       -0.6632605E-02 Eh
 * total energy  :  -134.2322067 Eh     change       -0.2021878E-04 Eh
 * total energy  :  -134.2322463 Eh     change       -0.3962355E-04 Eh
 * total energy  :  -134.2322666 Eh     change       -0.2035304E-04 Eh
 * total energy  :  -134.2322877 Eh     change       -0.2106893E-04 Eh
 * total energy  :  -134.2323109 Eh     change       -0.2314958E-04 Eh
 * total energy  :  -134.2323281 Eh     change       -0.1723619E-04 Eh
 * total energy  :  -134.2323401 Eh     change       -0.1201303E-04 Eh
 * total energy  :  -134.2323500 Eh     change       -0.9883345E-05 Eh
 * total energy  :  -134.2323531 Eh     change       -0.3064355E-05 Eh
   *** GEOMETRY OPTIMIZATION CONVERGED AFTER 44 ITERATIONS ***

 final structure:
================
78
 xtb: 6.4.1 (bd6e46d)
Zn        6.65055394253694   -0.05239810369523    0.03017876941348
C         9.13868998541995   -3.51884044077285    0.09980396434310
C        10.10398422441411   -2.56840274853978    0.12826406489871
C         9.43139865713910   -1.30076910835594    0.11273032220549
C        10.08632334982091   -0.05841731437041    0.13869784204239
C         9.43605700200091    1.18677580627219    0.12567598206249
C        10.11234146180585    2.45215884891594    0.15604903681936
C         9.15018263462193    3.40587113344510    0.12840758930588
C         7.88976606102085    2.72075519484737    0.08034915325436
N         8.09533253754127    1.37353476977268    0.08147471132222
C         6.65710665411608    3.35059788439603    0.03598761463131
C         5.42306764229487    2.72390671253515   -0.01208667945961
C         4.15929538204507    3.40806836570293   -0.05936317417415
C         3.20071814848896    2.45333378728958   -0.09341510481356
C         3.87807805568231    1.18492788231997   -0.06655671981504
N         5.22174829575355    1.38001355987692   -0.01866161784359
C         3.24366792082375   -0.04653953102775   -0.08359241272072
C         3.87297711709563   -1.28044699950789   -0.05732486603590
C         3.19083390001805   -2.54645209987281   -0.07378475813501
C         4.14611839929577   -3.50453198628850   -0.04041344539310
C         5.41262445061855   -2.82475147753251   -0.00388558144719
N         5.21609832168471   -1.48023191630337   -0.01402764044097
C         6.64505394936469   -3.45539806227910    0.03266857608288
C         7.88004669425750   -2.82957528314719    0.06626233215108
N         8.08994222925079   -1.48299599387437    0.07406852451600
H         9.25350531792014   -4.58558983344839    0.10087296816969
H        11.16893555848110   -2.69603485896595    0.15671087605232
H        11.17732937512421    2.57651864717751    0.19291458930271
H         9.26831552706241    4.47225635423731    0.13876005141431
H         6.65979746888510    4.43178439737661    0.03908562729269
H         4.04084734640335    4.47466648594920   -0.06541596030286
H         2.13542333114313    2.57687836442731   -0.13286645332654
H         2.16325531216542   -0.04433673186436   -0.11985673664117
H         2.12488259269535   -2.66640073285220   -0.10649881749508
H         4.02382399720611   -4.57070932168374   -0.04017196608244
H         6.64439633229937   -4.53660128007659    0.03435421832425
C        11.48380401968884   -0.06117359245813    0.17904746656903
C        12.70342153938532   -0.05332032954866    0.20848805645784
C        14.03982847742801   -0.04837422335044    0.23361563005312
C        15.26405345358407   -0.03993382191213    0.24584560457405
C        16.60070052583190   -0.03298871861504    0.23789939842637
C        17.82032298227840   -0.01474776761857    0.21333009986100
Zn       22.64675286465632    0.05360932710447   -0.05377831956575
C        20.11266866477774    3.47911084296008    0.17188863797077
C        19.16264927136277    2.51363092550607    0.20986556753666
C        19.85259714104670    1.25703247155267    0.14419245388430
C        19.21732539518675    0.00420945096185    0.16319636407036
C        19.88658970402354   -1.23022987870333    0.12715894289189
C        19.23165438118290   -2.50620924835256    0.17585239977460
C        20.20790967571872   -3.44439791825067    0.12350199665381
C        21.45528018583880   -2.73929757548224    0.03772469638115
N        21.22831257786166   -1.39556221727541    0.04523717020929
C        22.69537801326073   -3.34940098041039   -0.05161764421850
C        23.91583891081985   -2.70312176501735   -0.15549501056846
C        25.18654886031812   -3.36696359164045   -0.26565942184831
C        26.12624731889207   -2.39698948125944   -0.35289962212820
C        25.43070846769493   -1.13958952000609   -0.29272221317090
N        24.09472665164404   -1.35626279745056   -0.17451828594956
C        26.04332638239771    0.10198039109933   -0.34213554393871
C        25.39720615936002    1.32551194617625   -0.27259226685456
C        26.05807252673693    2.60224585570147   -0.31196993439810
C        25.09205627733790    3.54464462912957   -0.21025860055770
C        23.83997046071978    2.84461855083880   -0.11200456987404
N        24.05576913462158    1.50359905172207   -0.15203799356272
C        22.60202549446664    3.45534126684849   -0.00026007528669
C        21.37909591120675    2.81009348198487    0.07781065128835
N        21.18928480281132    1.46052712400156    0.06592163587879
H        19.98255481796409    4.54371985624377    0.20171931893149
H        18.09763646911362    2.62460553579445    0.27792627699823
H        18.17020706129039   -2.64738110257802    0.24327456930607
H        20.10728006281825   -4.51252641318815    0.13867363957522
H        22.71017146980634   -4.43048217195508   -0.04677103750269
H        25.32200970870922   -4.43151136533708   -0.27501692482476
H        27.18987143437130   -2.50334971148859   -0.44814070318776
H        27.11993260380601    0.11741242042832   -0.43851764421714
H        27.11841995321261    2.73942020997199   -0.40439771784028
H        25.19823581880875    4.61252919591397   -0.20252717895299
H        22.58710919147397    4.53624328791255    0.02088825168218

          :  Hamiltonian                  GFN2-xTB          :
         :: gradient norm              0.000662301102 Eh/a0 ::
         :: HOMO-LUMO gap              1.217294777249 eV    ::
         :: SCC energy              -136.735236234942 Eh    ::
         :: -> dispersion             -0.118550101338 Eh    ::
         :: repulsion energy           2.504132991098 Eh    ::

    * Orbital Energies and Occupations

         #    Occupation            Energy/Eh            Energy/eV
      -------------------------------------------------------------
         1        2.0000           -0.6666661             -18.1409
       ...           ...                  ...                  ...
       113        2.0000           -0.4014208             -10.9232
       114        2.0000           -0.4014105             -10.9229
       115        2.0000           -0.4008635             -10.9081
       116        2.0000           -0.4008576             -10.9079
       117        2.0000           -0.4007410             -10.9047
       118        2.0000           -0.3913486             -10.6491
       119        2.0000           -0.3860828             -10.5058
       120        2.0000           -0.3859969             -10.5035
       121        2.0000           -0.3789293             -10.3112
       122        2.0000           -0.3688853             -10.0379
       123        2.0000           -0.3688830             -10.0378
       124        2.0000           -0.3662966              -9.9674
       125        2.0000           -0.3534094              -9.6168 (HOMO)
       126                         -0.3086746              -8.3995 (LUMO)
       127                         -0.2981939              -8.1143
       128                         -0.2981930              -8.1142
       129                         -0.2963654              -8.0645
       130                         -0.2660593              -7.2398
       131                         -0.2573621              -7.0032
       132                         -0.2517362              -6.8501
       133                         -0.2259891              -6.1495
       134                         -0.1892245              -5.1491
       135                         -0.1892156              -5.1488
       136                         -0.1711724              -4.6578
       ...                                ...                  ...
       246                          1.7151343              46.6712
      -------------------------------------------------------------
                  HL-Gap            0.0447348 Eh            1.2173 eV

     #   Z          covCN         q      C6AA      α(0)
     1  30 Zn       3.042     0.245   122.298    21.603
     2   6 C        3.021    -0.052    29.267     8.874
     3   6 C        3.018    -0.050    29.229     8.868
     4   6 C        3.166     0.077    25.942     8.323
     5   6 C        2.953     0.017    27.639     8.623
     6   6 C        3.166     0.077    25.944     8.324
     7   6 C        3.018    -0.051    29.231     8.869
     8   6 C        3.020    -0.052    29.267     8.874
     9   6 C        3.149     0.076    26.051     8.349
    10   7 N        2.631    -0.177    24.842     7.402
    11   6 C        2.901    -0.050    29.236     8.866
    12   6 C        3.145     0.077    26.039     8.349
    13   6 C        3.017    -0.051    29.245     8.871
    14   6 C        3.018    -0.051    29.248     8.871
    15   6 C        3.145     0.077    26.029     8.347
    16   7 N        2.635    -0.175    24.793     7.395
    17   6 C        2.901    -0.052    29.281     8.872
    18   6 C        3.145     0.077    26.028     8.347
    19   6 C        3.018    -0.051    29.248     8.871
    20   6 C        3.017    -0.051    29.245     8.871
    21   6 C        3.145     0.077    26.038     8.349
    22   7 N        2.635    -0.175    24.795     7.395
    23   6 C        2.901    -0.050    29.236     8.866
    24   6 C        3.149     0.076    26.051     8.349
    25   7 N        2.632    -0.177    24.841     7.402
    26   1 H        0.926     0.034     2.536     2.490
    27   1 H        0.926     0.036     2.506     2.475
    28   1 H        0.926     0.036     2.506     2.475
    29   1 H        0.926     0.034     2.536     2.490
    30   1 H        0.926     0.049     2.331     2.387
    31   1 H        0.926     0.034     2.527     2.486
    32   1 H        0.926     0.034     2.529     2.487
    33   1 H        0.926     0.048     2.339     2.392
    34   1 H        0.926     0.034     2.529     2.487
    35   1 H        0.926     0.034     2.528     2.486
    36   1 H        0.926     0.049     2.331     2.388
    37   6 C        1.996    -0.020    31.563     9.073
    38   6 C        1.963    -0.011    31.355     9.043
    39   6 C        1.964    -0.003    31.139     9.012
    40   6 C        1.964    -0.003    31.139     9.012
    41   6 C        1.963    -0.011    31.355     9.043
    42   6 C        1.996    -0.020    31.563     9.073
    43  30 Zn       3.042     0.245   122.297    21.603
    44   6 C        3.020    -0.052    29.267     8.874
    45   6 C        3.018    -0.050    29.230     8.869
    46   6 C        3.166     0.077    25.943     8.323
    47   6 C        2.953     0.017    27.639     8.623
    48   6 C        3.166     0.077    25.943     8.323
    49   6 C        3.018    -0.050    29.230     8.868
    50   6 C        3.020    -0.052    29.267     8.874
    51   6 C        3.149     0.076    26.051     8.349
    52   7 N        2.632    -0.177    24.843     7.402
    53   6 C        2.901    -0.050    29.236     8.866
    54   6 C        3.145     0.077    26.038     8.348
    55   6 C        3.017    -0.051    29.245     8.871
    56   6 C        3.018    -0.051    29.248     8.871
    57   6 C        3.145     0.077    26.029     8.347
    58   7 N        2.634    -0.175    24.795     7.395
    59   6 C        2.901    -0.052    29.281     8.872
    60   6 C        3.145     0.077    26.029     8.347
    61   6 C        3.018    -0.051    29.248     8.871
    62   6 C        3.017    -0.051    29.245     8.871
    63   6 C        3.145     0.077    26.039     8.349
    64   7 N        2.635    -0.175    24.795     7.395
    65   6 C        2.901    -0.050    29.236     8.866
    66   6 C        3.149     0.076    26.052     8.349
    67   7 N        2.632    -0.177    24.840     7.402
    68   1 H        0.926     0.034     2.535     2.490
    69   1 H        0.926     0.036     2.506     2.476
    70   1 H        0.926     0.036     2.506     2.475
    71   1 H        0.926     0.034     2.536     2.490
    72   1 H        0.926     0.049     2.331     2.387
    73   1 H        0.926     0.034     2.528     2.486
    74   1 H        0.926     0.034     2.529     2.487
    75   1 H        0.926     0.048     2.339     2.392
    76   1 H        0.926     0.034     2.529     2.487
    77   1 H        0.926     0.034     2.528     2.486
    78   1 H        0.926     0.049     2.331     2.388

Wiberg/Mayer (AO) data.
largest (>0.10) Wiberg bond orders for each atom

     #   Z sym  total        # sym  WBO       # sym  WBO       # sym  WBO
 ---------------------------------------------------------------------------
     1  30 Zn   2.081 --    16 N    0.492    22 N    0.491    25 N    0.489
                            10 N    0.489
     2   6 C    3.953 --     3 C    1.650    24 C    1.171    26 H    0.972
     3   6 C    3.957 --     2 C    1.650     4 C    1.180    27 H    0.971
     4   6 C    3.911 --    25 N    1.286     5 C    1.251     3 C    1.180
     5   6 C    3.942 --     4 C    1.251     6 C    1.251    37 C    1.187
     6   6 C    3.910 --    10 N    1.286     5 C    1.251     7 C    1.180
     7   6 C    3.957 --     8 C    1.650     6 C    1.180    28 H    0.971
     8   6 C    3.953 --     7 C    1.650     9 C    1.171    29 H    0.972
     9   6 C    3.924 --    11 C    1.357    10 N    1.247     8 C    1.171
    10   7 N    3.467 --     6 C    1.286     9 C    1.247     1 Zn   0.489
    11   6 C    3.931 --     9 C    1.357    12 C    1.354    30 H    0.964
    12   6 C    3.929 --    11 C    1.354    16 N    1.261    13 C    1.163
    13   6 C    3.957 --    14 C    1.666    12 C    1.163    31 H    0.972
    14   6 C    3.955 --    13 C    1.666    15 C    1.162    32 H    0.972
    15   6 C    3.932 --    17 C    1.354    16 N    1.263    14 C    1.162
    16   7 N    3.464 --    15 C    1.263    12 C    1.261     1 Zn   0.492
    17   6 C    3.926 --    18 C    1.354    15 C    1.354    33 H    0.964
    18   6 C    3.932 --    17 C    1.354    22 N    1.263    19 C    1.162
    19   6 C    3.955 --    20 C    1.666    18 C    1.162    34 H    0.972
    20   6 C    3.957 --    19 C    1.666    21 C    1.163    35 H    0.972
    21   6 C    3.929 --    23 C    1.354    22 N    1.261    20 C    1.163
    22   7 N    3.464 --    18 C    1.263    21 C    1.261     1 Zn   0.491
    23   6 C    3.931 --    24 C    1.357    21 C    1.354    36 H    0.964
    24   6 C    3.924 --    23 C    1.357    25 N    1.247     2 C    1.171
    25   7 N    3.467 --     4 C    1.286    24 C    1.247     1 Zn   0.489
    26   1 H    0.998 --     2 C    0.972
    27   1 H    0.998 --     3 C    0.971
    28   1 H    0.998 --     7 C    0.971
    29   1 H    0.998 --     8 C    0.972
    30   1 H    0.996 --    11 C    0.964
    31   1 H    0.998 --    13 C    0.972
    32   1 H    0.998 --    14 C    0.972
    33   1 H    0.996 --    17 C    0.964
    34   1 H    0.998 --    19 C    0.972
    35   1 H    0.998 --    20 C    0.972
    36   1 H    0.996 --    23 C    0.964
    37   6 C    3.884 --    38 C    2.444     5 C    1.187    40 C    0.193
    38   6 C    3.928 --    37 C    2.444    39 C    1.331
    39   6 C    3.920 --    40 C    2.359    38 C    1.331    42 C    0.193
    40   6 C    3.920 --    39 C    2.359    41 C    1.331    37 C    0.193
    41   6 C    3.928 --    42 C    2.444    40 C    1.331
    42   6 C    3.884 --    41 C    2.444    47 C    1.187    39 C    0.193
    43  30 Zn   2.081 --    64 N    0.491    58 N    0.491    67 N    0.489
                            52 N    0.489
    44   6 C    3.953 --    45 C    1.650    66 C    1.171    68 H    0.972
    45   6 C    3.957 --    44 C    1.650    46 C    1.180    69 H    0.971
    46   6 C    3.911 --    67 N    1.286    47 C    1.251    45 C    1.180
    47   6 C    3.942 --    48 C    1.251    46 C    1.251    42 C    1.187
    48   6 C    3.911 --    52 N    1.286    47 C    1.251    49 C    1.180
    49   6 C    3.957 --    50 C    1.650    48 C    1.180    70 H    0.971
    50   6 C    3.953 --    49 C    1.650    51 C    1.171    71 H    0.972
    51   6 C    3.924 --    53 C    1.357    52 N    1.247    50 C    1.171
    52   7 N    3.467 --    48 C    1.286    51 C    1.247    43 Zn   0.489
    53   6 C    3.931 --    51 C    1.357    54 C    1.354    72 H    0.964
    54   6 C    3.929 --    53 C    1.354    58 N    1.261    55 C    1.163
    55   6 C    3.957 --    56 C    1.666    54 C    1.163    73 H    0.972
    56   6 C    3.955 --    55 C    1.666    57 C    1.162    74 H    0.972
    57   6 C    3.932 --    59 C    1.354    58 N    1.263    56 C    1.162
    58   7 N    3.464 --    57 C    1.263    54 C    1.261    43 Zn   0.491
    59   6 C    3.926 --    57 C    1.354    60 C    1.354    75 H    0.964
    60   6 C    3.932 --    59 C    1.354    64 N    1.263    61 C    1.162
    61   6 C    3.955 --    62 C    1.666    60 C    1.162    76 H    0.972
    62   6 C    3.957 --    61 C    1.666    63 C    1.163    77 H    0.972
    63   6 C    3.930 --    65 C    1.354    64 N    1.261    62 C    1.163
    64   7 N    3.464 --    60 C    1.263    63 C    1.261    43 Zn   0.491
    65   6 C    3.931 --    66 C    1.357    63 C    1.354    78 H    0.964
    66   6 C    3.924 --    65 C    1.357    67 N    1.247    44 C    1.171
    67   7 N    3.467 --    46 C    1.286    66 C    1.247    43 Zn   0.489
    68   1 H    0.998 --    44 C    0.972
    69   1 H    0.998 --    45 C    0.971
    70   1 H    0.998 --    49 C    0.971
    71   1 H    0.998 --    50 C    0.972
    72   1 H    0.996 --    53 C    0.964
    73   1 H    0.998 --    55 C    0.972
    74   1 H    0.998 --    56 C    0.972
    75   1 H    0.996 --    59 C    0.964
    76   1 H    0.998 --    61 C    0.972
    77   1 H    0.998 --    62 C    0.972
    78   1 H    0.996 --    65 C    0.964
 ---------------------------------------------------------------------------

molecular dipole:
                 x           y           z       tot (Debye)
 q only:       -0.001       0.005      -0.026
   full:       -0.001       0.007      -0.041       0.106

 projected vibrational frequencies (cm⁻¹)
eigval :       -0.00    -0.00    -0.00    -0.00     0.00     0.00
eigval :        2.28     6.71     7.50    16.95    23.72    37.98
eigval :       41.04    41.31    60.46    71.58    73.15    74.18
eigval :       86.16    91.38   117.51   127.40   127.43   135.98
eigval :      163.32   166.98   171.22   172.82   179.76   180.92
eigval :      181.78   196.22   197.14   197.18   198.52   198.54
eigval :      201.32   202.57   202.84   207.43   217.63   237.69
eigval :      262.71   262.86   277.87   300.77   303.19   318.50
eigval :      319.66   337.00   338.10   347.57   351.84   355.52
eigval :      359.13   359.63   360.83   361.58   375.70   380.03
eigval :      384.86   384.88   385.46   394.34   397.52   397.59
eigval :      426.21   426.71   431.60   431.72   454.81   455.10
eigval :      472.17   509.26   509.83   623.82   624.05   628.00
eigval :      628.04   631.32   631.34   646.04   646.10   648.27
eigval :      648.31   660.82   660.85   663.44   663.47   674.01
eigval :      674.24   704.25   721.41   726.11   731.18   731.19
eigval :      760.37   760.49   763.66   768.74   776.07   776.09
eigval :      780.58   782.18   797.81   798.30   799.63   799.68
eigval :      807.49   807.55   812.79   812.93   820.14   820.21
eigval :      829.59   829.67   836.83   836.92   840.13   840.25
eigval :      843.65   843.73   846.54   846.64   847.41   847.47
eigval :      848.53   848.58   901.83   962.62   990.35   991.78
eigval :     1003.63  1003.68  1019.58  1026.02  1026.04  1026.37
eigval :     1036.43  1036.44  1037.57  1037.83  1045.86  1045.99
eigval :     1067.72  1067.75  1068.89  1069.43  1070.80  1071.10
eigval :     1073.03  1073.36  1083.48  1141.91  1155.42  1155.44
eigval :     1158.95  1169.70  1176.48  1176.79  1176.83  1225.56
eigval :     1225.64  1239.83  1239.96  1275.86  1285.55  1285.63
eigval :     1300.70  1301.15  1301.16  1307.88  1317.95  1317.97
eigval :     1333.25  1334.23  1342.68  1342.70  1348.59  1349.57
eigval :     1365.23  1366.76  1367.12  1367.16  1425.89  1447.44
eigval :     1449.11  1449.19  1467.09  1473.25  1484.32  1496.92
eigval :     1502.56  1507.64  1507.71  1513.80  1513.86  1520.60
eigval :     1524.28  1531.29  1531.31  1549.30  1550.01  1555.17
eigval :     1555.23  1564.65  1565.14  1598.89  1598.93  2158.43
eigval :     2202.62  2263.32  3077.67  3077.77  3078.21  3078.27
eigval :     3079.52  3079.54  3146.38  3146.40  3146.74  3146.76
eigval :     3150.98  3151.20  3151.27  3151.48  3160.02  3160.05
eigval :     3160.83  3161.19  3165.26  3165.47  3165.74  3166.11

   temp. (K)  partition function   enthalpy   heat capacity  entropy
                                   cal/mol     cal/K/mol   cal/K/mol   J/K/mol
 298.15  VIB  0.129E+22            26653.681    173.278    166.845
         ROT  0.251E+09              888.752      2.981     41.415
         INT  0.323E+30            27542.434    176.259    208.260
         TR   0.226E+29             1481.254      4.968     45.960
         TOT                       29023.6875   181.2268   254.2198  1063.6555

       T/K    H(0)-H(T)+PV         H(T)/Eh          T*S/Eh         G(T)/Eh
   ------------------------------------------------------------------------
    298.15    0.462522E-01    0.583476E+00    0.120788E+00    0.462688E+00
   ------------------------------------------------------------------------

         :::::::::::::::::::::::::::::::::::::::::::::::::::::
         ::                  THERMODYNAMIC                  ::
         :::::::::::::::::::::::::::::::::::::::::::::::::::::
         :: total free energy        -133.769664786070 Eh   ::
         ::.................................................::
         :: total energy             -134.232353052157 Eh   ::
         :: zero point energy           0.537224089409 Eh   ::
         :: G(RRHO) w/o ZPVE           -0.074535823322 Eh   ::
         :: G(RRHO) contrib.            0.462688266087 Eh   ::
         :::::::::::::::::::::::::::::::::::::::::::::::::::::

           -------------------------------------------------
          | TOTAL ENERGY             -134.232353052157 Eh   |
          | TOTAL ENTHALPY           -133.648876772714 Eh   |
          | TOTAL FREE ENERGY        -133.769664786070 Eh   |
          | GRADIENT NORM               0.000662320400 Eh/α |
          | HOMO-LUMO GAP               1.217295100902 eV   |
           -------------------------------------------------

 * finished run on 2021/11/18 at 18:37:09.995
