   * xtb version 6.4.1 (bd6e46d) compiled by 'conda@4901f00b25ba' on 2021-06-10
          program call               : /home/jeff/miniconda3/bin/xtb input_structure_1.xyz --gfn 2 --ohess normal --parallel 1 --etemp 300 --chrg 0 --uhf 0 -I det_control.in
          number of atoms            :                    78
          number of electrons        :                   268
          charge                     :                     0
          spin                       :                   0.0

   ID    Z sym.   atoms
    1   29 Cu     1, 43
    2    6 C      2-9, 11-15, 17-21, 23, 24, 37-42, 44-51, 53-57, 59-63, 65,
                  66
    3    7 N      10, 16, 22, 25, 52, 58, 64, 67
    4    1 H      26-36, 68-78

          :  Hamiltonian                  GFN2-xTB          :
 * total energy  :  -140.1563517 Eh     change       -0.5443667E-08 Eh
 * total energy  :  -140.5840201 Eh     change       -0.4276684E+00 Eh
 * total energy  :  -140.6942235 Eh     change       -0.1102034E+00 Eh
 * total energy  :  -140.7509526 Eh     change       -0.5672912E-01 Eh
 * total energy  :  -140.7806583 Eh     change       -0.2970569E-01 Eh
 * total energy  :  -140.7998338 Eh     change       -0.1917550E-01 Eh
 * total energy  :  -140.8128965 Eh     change       -0.1306265E-01 Eh
 * total energy  :  -140.8219579 Eh     change       -0.9061396E-02 Eh
 * total energy  :  -140.8287837 Eh     change       -0.6825810E-02 Eh
 * total energy  :  -140.8345555 Eh     change       -0.5771820E-02 Eh
 * total energy  :  -140.8733843 Eh     change       -0.1568875E-04 Eh
 * total energy  :  -140.8734102 Eh     change       -0.2596513E-04 Eh
 * total energy  :  -140.8734237 Eh     change       -0.1344430E-04 Eh
 * total energy  :  -140.8734405 Eh     change       -0.1676059E-04 Eh
 * total energy  :  -140.8734609 Eh     change       -0.2047246E-04 Eh
 * total energy  :  -140.8734768 Eh     change       -0.1590906E-04 Eh
 * total energy  :  -140.8734895 Eh     change       -0.1268670E-04 Eh
 * total energy  :  -140.8735028 Eh     change       -0.1328982E-04 Eh
 * total energy  :  -140.8735068 Eh     change       -0.3974935E-05 Eh
   *** GEOMETRY OPTIMIZATION CONVERGED AFTER 44 ITERATIONS ***

 final structure:
================
78
 xtb: 6.4.1 (bd6e46d)
Cu        6.65175160250718   -0.05385614085555    0.02434731150508
C         9.13095528454967   -3.51433056235772    0.04961340148277
C        10.09643154773535   -2.56543130088158    0.08686578701062
C         9.42483864096533   -1.29732172957839    0.08890961737464
C        10.08866862633192   -0.06201720322751    0.12721375361711
C         9.43074888277128    1.17718296465580    0.12071203465692
C        10.10727937997817    2.44220300906520    0.15435038877608
C         9.14602089032153    3.39571013427952    0.12712853100208
C         7.88553691713204    2.71114921305789    0.07772197457033
N         8.09257387212374    1.36621738116837    0.07628508126260
C         6.65846440412125    3.34870746185730    0.03645491423329
C         5.42962508383632    2.71425152518438   -0.00555691939591
C         4.16693808297522    3.40085524616642   -0.04416310342374
C         3.20666252321057    2.44865286924851   -0.06958522168397
C         3.88156408544199    1.17911381418718   -0.04753338674120
N         5.22394441543038    1.37299340905616   -0.01030664643208
C         3.23725176852809   -0.04569016934470   -0.06102055159139
C         3.87498643045952   -1.27389053507789   -0.04581043726695
C         3.19377187817253   -2.54010959101633   -0.06287565234478
C         4.14962706244590   -3.49700356091465   -0.04719482879815
C         5.41593242474184   -2.81656825867311   -0.01994569944312
N         5.21656538553723   -1.47438551778652   -0.01837567448901
C         6.64266619705791   -3.45620944565256   -0.00145824551228
C         7.87281271035012   -2.82391930477205    0.02952553632549
N         8.08547086843491   -1.47997995371986    0.05189185883369
H         9.24124344976992   -4.58138377183572    0.03665106625918
H        11.16177720274063   -2.69012087166246    0.11028088595073
H        11.17261719326920    2.56229302320167    0.19262046541372
H         9.26078115390055    4.46231959852566    0.13919850148681
H         6.66101932723319    4.42924065267730    0.03914192163940
H         4.05465912569150    4.46799851023888   -0.05010911565134
H         2.14103024040811    2.57051569881088   -0.10069456991933
H         2.15724464498057   -0.04274478023418   -0.08682387855244
H         2.12736671836344   -2.65706930979573   -0.08431323567300
H         4.03190713411425   -4.56355633631755   -0.05276101928440
H         6.64107243407743   -4.53672032613006   -0.01061704985796
C        11.48485149924459   -0.06497284525477    0.17072343091265
C        12.70422455189961   -0.05275253704388    0.20577909895728
C        14.04012529975356   -0.04517925747269    0.23634546533374
C        15.26420610514910   -0.03757627984177    0.25046970818041
C        16.60040111859633   -0.02419499776539    0.24631542933468
C        17.82008550156870   -0.01002699203196    0.22402149058417
Cu       22.64600795227747    0.05402541112817   -0.04796856754043
C        20.12237498262565    3.47589870736993    0.17485834461513
C        19.17163461473438    2.51219603793236    0.21231854396823
C        19.86003128043947    1.25470576260746    0.14977297820865
C        19.21597581651952    0.00851444827375    0.17586645995441
C        19.89338445538312   -1.21980076097888    0.15177960069575
C        19.23892168037334   -2.49511435321253    0.21770131272113
C        20.21461308045954   -3.43326509403751    0.17475996829025
C        21.46146068564806   -2.72926513766113    0.07602175780842
N        21.23257304717301   -1.38785770822449    0.06918820820234
C        22.69539474377881   -3.34797401883010   -0.01649204828780
C        23.90889331964766   -2.69496364465423   -0.14124745258285
C        25.17673194752345   -3.36156759140755   -0.26528115521071
C        26.11606734563045   -2.39444116004520   -0.37406398057763
C        25.42383447446629   -1.13567571978847   -0.31131028829514
N        24.09132069025847   -1.35076039709410   -0.17315634715257
C        26.04545891370842    0.09937986424894   -0.37196996672763
C        25.39251478871962    1.31713047287084   -0.29245271985038
C        26.05298533822246    2.59374725794938   -0.33379339016732
C        25.08855100776507    3.53525507255034   -0.21986092477467
C        23.83720431208938    2.83517217116112   -0.11365396149771
N        24.05428611567904    1.49648707043619   -0.15926276303090
C        22.60627727219757    3.45597656196865    0.00423733108201
C        21.38795402943317    2.80525634398077    0.08300818815536
N        21.19455518830544    1.45830603806376    0.07270301943219
H        19.99699298020757    4.54099224231777    0.20261054820898
H        18.10642220014494    2.62078484022422    0.27888878657270
H        18.17731043414086   -2.63169482728561    0.28975117496009
H        20.11772043540326   -4.50132510294111    0.20270474208856
H        22.71055850008336   -4.42830413026446   -0.00088510259208
H        25.30659119760254   -4.42670829738768   -0.26900086296278
H        27.17812943813154   -2.49965447478709   -0.48481535786160
H        27.12009670274760    0.11405821455907   -0.48151776682264
H        27.11282836227371    2.72744564207170   -0.43477786737002
H        25.19108738607386    4.60330956697141   -0.20903980670835
H        22.59362761422350    4.53623375978991    0.02608994639517

          :  Hamiltonian                  GFN2-xTB          :
         :: gradient norm              0.000582923208 Eh/a0 ::
         :: HOMO-LUMO gap              0.000022615546 eV    ::
         :: SCC energy              -143.390510640971 Eh    ::
         :: -> dispersion             -0.119510660540 Eh    ::
         :: repulsion energy           2.518257097919 Eh    ::

    * Orbital Energies and Occupations

         #    Occupation            Energy/Eh            Energy/eV
      -------------------------------------------------------------
         1        2.0000           -0.6783135             -18.4578
       ...           ...                  ...                  ...
       122        2.0000           -0.3901494             -10.6165
       123        2.0000           -0.3802004             -10.3458
       124        2.0000           -0.3763859             -10.2420
       125        2.0000           -0.3763458             -10.2409
       126        2.0000           -0.3759690             -10.2306
       127        2.0000           -0.3759123             -10.2291
       128        2.0000           -0.3703139             -10.0768
       129        2.0000           -0.3702877             -10.0760
       130        2.0000           -0.3687758             -10.0349
       131        2.0000           -0.3687241             -10.0335
       132        2.0000           -0.3666248              -9.9764
       133        2.0000           -0.3539626              -9.6318
       134        1.0002           -0.3206032              -8.7241 (HOMO)
       135        0.9998           -0.3206024              -8.7240 (LUMO)
       136        0.0000           -0.3096231              -8.4253
       137                         -0.2990507              -8.1376
       138                         -0.2990201              -8.1367
       139                         -0.2971912              -8.0870
       140                         -0.2671838              -7.2704
       141                         -0.2585104              -7.0344
       142                         -0.2529892              -6.8842
       143                         -0.2269649              -6.1760
       144                         -0.1908049              -5.1921
       145                         -0.1907870              -5.1916
       ...                                ...                  ...
       256                          1.7157657              46.6884
      -------------------------------------------------------------
                  HL-Gap            0.0000008 Eh            0.0000 eV

     #   Z          covCN         q      C6AA      α(0)
     1  29 Cu       2.955     0.196   146.204    27.533
     2   6 C        3.023    -0.051    29.235     8.869
     3   6 C        3.020    -0.049    29.196     8.863
     4   6 C        3.165     0.079    25.919     8.320
     5   6 C        2.953     0.017    27.640     8.623
     6   6 C        3.165     0.079    25.919     8.320
     7   6 C        3.020    -0.049    29.199     8.864
     8   6 C        3.023    -0.051    29.234     8.869
     9   6 C        3.148     0.077    26.024     8.345
    10   7 N        2.619    -0.172    24.735     7.386
    11   6 C        2.901    -0.050    29.230     8.865
    12   6 C        3.144     0.078    26.011     8.345
    13   6 C        3.019    -0.050    29.212     8.866
    14   6 C        3.019    -0.050    29.216     8.866
    15   6 C        3.144     0.079    25.997     8.342
    16   7 N        2.623    -0.170    24.695     7.380
    17   6 C        2.901    -0.051    29.273     8.871
    18   6 C        3.144     0.079    25.997     8.342
    19   6 C        3.019    -0.050    29.216     8.866
    20   6 C        3.019    -0.050    29.212     8.866
    21   6 C        3.144     0.078    26.011     8.345
    22   7 N        2.622    -0.170    24.695     7.380
    23   6 C        2.901    -0.050    29.231     8.865
    24   6 C        3.148     0.077    26.024     8.345
    25   7 N        2.620    -0.172    24.736     7.387
    26   1 H        0.926     0.034     2.530     2.487
    27   1 H        0.926     0.036     2.500     2.473
    28   1 H        0.926     0.036     2.500     2.472
    29   1 H        0.926     0.034     2.529     2.487
    30   1 H        0.926     0.050     2.325     2.385
    31   1 H        0.926     0.035     2.521     2.483
    32   1 H        0.926     0.035     2.522     2.483
    33   1 H        0.926     0.049     2.334     2.389
    34   1 H        0.926     0.035     2.522     2.483
    35   1 H        0.926     0.035     2.521     2.483
    36   1 H        0.926     0.050     2.326     2.385
    37   6 C        1.995    -0.019    31.555     9.072
    38   6 C        1.963    -0.010    31.340     9.040
    39   6 C        1.965    -0.002    31.129     9.010
    40   6 C        1.965    -0.002    31.129     9.010
    41   6 C        1.963    -0.010    31.339     9.040
    42   6 C        1.995    -0.019    31.556     9.072
    43  29 Cu       2.955     0.196   146.204    27.533
    44   6 C        3.023    -0.051    29.234     8.869
    45   6 C        3.020    -0.049    29.197     8.863
    46   6 C        3.165     0.079    25.920     8.320
    47   6 C        2.953     0.017    27.640     8.623
    48   6 C        3.165     0.079    25.919     8.320
    49   6 C        3.020    -0.049    29.197     8.863
    50   6 C        3.023    -0.051    29.234     8.869
    51   6 C        3.148     0.077    26.024     8.345
    52   7 N        2.620    -0.172    24.735     7.386
    53   6 C        2.901    -0.050    29.230     8.865
    54   6 C        3.144     0.078    26.011     8.345
    55   6 C        3.019    -0.050    29.212     8.866
    56   6 C        3.020    -0.050    29.216     8.866
    57   6 C        3.144     0.079    25.998     8.343
    58   7 N        2.622    -0.170    24.695     7.380
    59   6 C        2.901    -0.051    29.273     8.871
    60   6 C        3.144     0.079    25.997     8.343
    61   6 C        3.019    -0.050    29.216     8.866
    62   6 C        3.019    -0.050    29.212     8.866
    63   6 C        3.144     0.078    26.012     8.345
    64   7 N        2.623    -0.170    24.695     7.380
    65   6 C        2.901    -0.050    29.230     8.865
    66   6 C        3.148     0.077    26.025     8.345
    67   7 N        2.619    -0.172    24.735     7.386
    68   1 H        0.926     0.034     2.529     2.487
    69   1 H        0.926     0.036     2.500     2.473
    70   1 H        0.926     0.036     2.500     2.472
    71   1 H        0.926     0.034     2.529     2.487
    72   1 H        0.926     0.050     2.325     2.385
    73   1 H        0.926     0.035     2.521     2.483
    74   1 H        0.926     0.035     2.522     2.483
    75   1 H        0.926     0.049     2.334     2.389
    76   1 H        0.926     0.035     2.522     2.483
    77   1 H        0.926     0.035     2.521     2.483
    78   1 H        0.926     0.050     2.325     2.385

Wiberg/Mayer (AO) data.
largest (>0.10) Wiberg bond orders for each atom

     #   Z sym  total        # sym  WBO       # sym  WBO       # sym  WBO
 ---------------------------------------------------------------------------
     1  29 Cu   2.321 --    16 N    0.533    22 N    0.532    25 N    0.531
                            10 N    0.531
     2   6 C    3.946 --     3 C    1.651    24 C    1.167    26 H    0.972
     3   6 C    3.950 --     2 C    1.651     4 C    1.175    27 H    0.971
     4   6 C    3.908 --    25 N    1.289     5 C    1.249     3 C    1.175
     5   6 C    3.942 --     4 C    1.249     6 C    1.248    37 C    1.188
     6   6 C    3.908 --    10 N    1.289     5 C    1.248     7 C    1.175
     7   6 C    3.950 --     8 C    1.651     6 C    1.175    28 H    0.971
     8   6 C    3.946 --     7 C    1.651     9 C    1.167    29 H    0.972
     9   6 C    3.921 --    11 C    1.355    10 N    1.249     8 C    1.167
    10   7 N    3.381 --     6 C    1.289     9 C    1.249     1 Cu   0.531
    11   6 C    3.932 --     9 C    1.355    12 C    1.352    30 H    0.964
    12   6 C    3.927 --    11 C    1.352    16 N    1.264    13 C    1.158
    13   6 C    3.950 --    14 C    1.666    12 C    1.158    31 H    0.972
    14   6 C    3.948 --    13 C    1.666    15 C    1.157    32 H    0.972
    15   6 C    3.930 --    17 C    1.351    16 N    1.266    14 C    1.157
    16   7 N    3.377 --    15 C    1.266    12 C    1.264     1 Cu   0.533
    17   6 C    3.926 --    15 C    1.351    18 C    1.351    33 H    0.964
    18   6 C    3.930 --    17 C    1.351    22 N    1.266    19 C    1.157
    19   6 C    3.948 --    20 C    1.666    18 C    1.157    34 H    0.972
    20   6 C    3.950 --    19 C    1.666    21 C    1.158    35 H    0.972
    21   6 C    3.927 --    23 C    1.351    22 N    1.264    20 C    1.158
    22   7 N    3.376 --    18 C    1.266    21 C    1.264     1 Cu   0.532
    23   6 C    3.932 --    24 C    1.355    21 C    1.351    36 H    0.964
    24   6 C    3.921 --    23 C    1.355    25 N    1.249     2 C    1.167
    25   7 N    3.381 --     4 C    1.289    24 C    1.249     1 Cu   0.531
    26   1 H    0.998 --     2 C    0.972
    27   1 H    0.998 --     3 C    0.971
    28   1 H    0.998 --     7 C    0.971
    29   1 H    0.998 --     8 C    0.972
    30   1 H    0.996 --    11 C    0.964
    31   1 H    0.998 --    13 C    0.972
    32   1 H    0.998 --    14 C    0.972
    33   1 H    0.997 --    17 C    0.964
    34   1 H    0.998 --    19 C    0.972
    35   1 H    0.998 --    20 C    0.972
    36   1 H    0.996 --    23 C    0.964
    37   6 C    3.884 --    38 C    2.443     5 C    1.188    40 C    0.193
    38   6 C    3.927 --    37 C    2.443    39 C    1.332
    39   6 C    3.920 --    40 C    2.358    38 C    1.332    42 C    0.193
    40   6 C    3.920 --    39 C    2.358    41 C    1.332    37 C    0.193
    41   6 C    3.927 --    42 C    2.443    40 C    1.332
    42   6 C    3.884 --    41 C    2.443    47 C    1.188    39 C    0.193
    43  29 Cu   2.321 --    64 N    0.533    58 N    0.532    52 N    0.531
                            67 N    0.531
    44   6 C    3.946 --    45 C    1.651    66 C    1.167    68 H    0.972
    45   6 C    3.950 --    44 C    1.651    46 C    1.175    69 H    0.971
    46   6 C    3.908 --    67 N    1.289    47 C    1.248    45 C    1.175
    47   6 C    3.942 --    48 C    1.249    46 C    1.248    42 C    1.188
    48   6 C    3.908 --    52 N    1.289    47 C    1.249    49 C    1.175
    49   6 C    3.950 --    50 C    1.651    48 C    1.175    70 H    0.971
    50   6 C    3.946 --    49 C    1.651    51 C    1.167    71 H    0.972
    51   6 C    3.921 --    53 C    1.355    52 N    1.249    50 C    1.167
    52   7 N    3.381 --    48 C    1.289    51 C    1.249    43 Cu   0.531
    53   6 C    3.932 --    51 C    1.355    54 C    1.351    72 H    0.964
    54   6 C    3.927 --    53 C    1.351    58 N    1.264    55 C    1.158
    55   6 C    3.950 --    56 C    1.666    54 C    1.158    73 H    0.972
    56   6 C    3.948 --    55 C    1.666    57 C    1.157    74 H    0.972
    57   6 C    3.930 --    59 C    1.351    58 N    1.266    56 C    1.157
    58   7 N    3.376 --    57 C    1.266    54 C    1.264    43 Cu   0.532
    59   6 C    3.926 --    57 C    1.351    60 C    1.351    75 H    0.964
    60   6 C    3.930 --    59 C    1.351    64 N    1.266    61 C    1.157
    61   6 C    3.948 --    62 C    1.666    60 C    1.157    76 H    0.972
    62   6 C    3.950 --    61 C    1.666    63 C    1.158    77 H    0.972
    63   6 C    3.927 --    65 C    1.351    64 N    1.264    62 C    1.158
    64   7 N    3.377 --    60 C    1.266    63 C    1.264    43 Cu   0.533
    65   6 C    3.932 --    66 C    1.355    63 C    1.351    78 H    0.964
    66   6 C    3.921 --    65 C    1.355    67 N    1.249    44 C    1.167
    67   7 N    3.381 --    46 C    1.289    66 C    1.249    43 Cu   0.531
    68   1 H    0.998 --    44 C    0.972
    69   1 H    0.998 --    45 C    0.971
    70   1 H    0.998 --    49 C    0.971
    71   1 H    0.998 --    50 C    0.972
    72   1 H    0.996 --    53 C    0.964
    73   1 H    0.998 --    55 C    0.972
    74   1 H    0.998 --    56 C    0.972
    75   1 H    0.997 --    59 C    0.964
    76   1 H    0.998 --    61 C    0.972
    77   1 H    0.998 --    62 C    0.972
    78   1 H    0.996 --    65 C    0.964
 ---------------------------------------------------------------------------

molecular dipole:
                 x           y           z       tot (Debye)
 q only:        0.003       0.004      -0.027
   full:        0.003       0.006      -0.043       0.110

 projected vibrational frequencies (cm⁻¹)
eigval :       -0.00    -0.00    -0.00     0.00     0.00     0.00
eigval :       -2.95     4.66     6.15    13.76    23.32    30.13
eigval :       38.63    38.91    50.85    66.47    75.35    83.60
eigval :       86.61    90.95   112.98   120.55   120.61   129.73
eigval :      137.75   160.29   164.48   164.91   183.11   184.28
eigval :      184.72   193.82   200.35   202.81   208.91   209.74
eigval :      209.82   216.20   217.64   218.38   220.70   228.68
eigval :      259.74   259.88   279.57   301.19   303.28   319.54
eigval :      320.61   345.93   346.92   350.63   352.29   354.16
eigval :      361.48   365.69   366.90   369.17   383.64   384.83
eigval :      387.93   391.03   391.89   391.94   393.25   395.19
eigval :      426.40   426.59   428.16   428.33   457.42   457.62
eigval :      467.78   504.26   504.86   611.82   611.92   617.61
eigval :      617.78   622.34   622.37   642.40   642.44   642.92
eigval :      643.00   651.09   651.13   657.41   657.47   667.92
eigval :      668.18   704.12   717.92   722.96   723.00   725.20
eigval :      757.13   757.20   762.90   769.19   776.82   776.87
eigval :      778.73   779.76   795.96   796.40   797.71   797.79
eigval :      804.97   805.04   810.43   810.58   818.36   818.50
eigval :      826.50   826.60   833.37   833.47   836.91   837.04
eigval :      842.77   842.88   842.98   843.11   843.31   843.40
eigval :      845.31   845.40   898.88   964.22   998.29  1000.61
eigval :     1003.73  1003.82  1020.13  1026.80  1029.07  1029.09
eigval :     1034.38  1034.42  1040.31  1040.46  1043.48  1043.62
eigval :     1066.45  1066.52  1068.36  1068.91  1070.48  1070.73
eigval :     1075.04  1079.18  1082.76  1141.61  1154.54  1154.56
eigval :     1159.27  1172.08  1175.01  1175.05  1180.37  1227.44
eigval :     1227.50  1240.46  1240.65  1280.87  1288.12  1288.21
eigval :     1300.43  1301.89  1301.91  1308.28  1319.85  1319.90
eigval :     1333.30  1333.40  1338.76  1344.48  1344.56  1345.84
eigval :     1366.91  1367.51  1367.53  1367.65  1428.24  1453.24
eigval :     1453.24  1454.19  1471.69  1478.81  1490.14  1503.65
eigval :     1505.60  1510.01  1510.10  1521.21  1521.32  1527.04
eigval :     1531.45  1536.89  1536.97  1551.85  1553.27  1559.40
eigval :     1559.50  1569.28  1570.12  1602.97  1603.13  2159.09
eigval :     2204.02  2264.58  3084.17  3084.18  3084.24  3084.31
eigval :     3086.43  3086.56  3148.04  3148.28  3148.40  3148.62
eigval :     3152.31  3152.62  3152.66  3152.80  3161.78  3161.99
eigval :     3162.02  3162.44  3166.14  3166.63  3166.78  3167.06

   temp. (K)  partition function   enthalpy   heat capacity  entropy
                                   cal/mol     cal/K/mol   cal/K/mol   J/K/mol
 298.15  VIB  0.360E+22            26704.353    173.505    167.607
         ROT  0.249E+09              888.752      2.981     41.402
         INT  0.897E+30            27593.106    176.486    209.009
         TR   0.225E+29             1481.254      4.968     45.947
         TOT                       29074.3597   181.4539   254.9554  1066.7332

       T/K    H(0)-H(T)+PV         H(T)/Eh          T*S/Eh         G(T)/Eh
   ------------------------------------------------------------------------
    298.15    0.463329E-01    0.583631E+00    0.121138E+00    0.462493E+00
   ------------------------------------------------------------------------

         :::::::::::::::::::::::::::::::::::::::::::::::::::::
         ::                  THERMODYNAMIC                  ::
         :::::::::::::::::::::::::::::::::::::::::::::::::::::
         :: total free energy        -140.411013667370 Eh   ::
         ::.................................................::
         :: total energy             -140.873506793317 Eh   ::
         :: zero point energy           0.537297701229 Eh   ::
         :: G(RRHO) w/o ZPVE           -0.074804575281 Eh   ::
         :: G(RRHO) contrib.            0.462493125947 Eh   ::
         :::::::::::::::::::::::::::::::::::::::::::::::::::::

           -------------------------------------------------
          | TOTAL ENERGY             -140.873506793317 Eh   |
          | TOTAL ENTHALPY           -140.289876150648 Eh   |
          | TOTAL FREE ENERGY        -140.411013667370 Eh   |
          | GRADIENT NORM               0.000583071042 Eh/α |
          | HOMO-LUMO GAP               0.000022393660 eV   |
           -------------------------------------------------

 * finished run on 2021/11/19 at 10:54:07.358
