   * xtb version 6.4.1 (bd6e46d) compiled by 'conda@4901f00b25ba' on 2021-06-10
          program call               : /home/jeff/miniconda3/bin/xtb input_structure_1.xyz --gfn 2 --ohess normal --parallel 1 --etemp 300 --chrg 0 --uhf 0 -I det_control.in
          number of atoms            :                    76
          number of electrons        :                   260
          charge                     :                     0
          spin                       :                   0.0

   ID    Z sym.   atoms
    1   29 Cu     1, 41
    2    6 C      2-9, 11-15, 17-21, 23, 24, 37-40, 42-49, 51-55, 57-61, 63,
                  64
    3    7 N      10, 16, 22, 25, 50, 56, 62, 65
    4    1 H      26-36, 66-76

          :  Hamiltonian                  GFN2-xTB          :
 * total energy  :  -135.0052961 Eh     change       -0.1043270E-07 Eh
 * total energy  :  -136.1669621 Eh     change       -0.1161666E+01 Eh
 * total energy  :  -136.3454307 Eh     change       -0.1784686E+00 Eh
 * total energy  :  -136.4413226 Eh     change       -0.9589195E-01 Eh
 * total energy  :  -136.4950470 Eh     change       -0.5372433E-01 Eh
 * total energy  :  -136.5288024 Eh     change       -0.3375545E-01 Eh
 * total energy  :  -136.5512747 Eh     change       -0.2247225E-01 Eh
 * total energy  :  -136.5670758 Eh     change       -0.1580118E-01 Eh
 * total energy  :  -136.5788198 Eh     change       -0.1174401E-01 Eh
 * total energy  :  -136.5882604 Eh     change       -0.9440599E-02 Eh
 * total energy  :  -136.6471914 Eh     change       -0.2008545E-04 Eh
 * total energy  :  -136.6472057 Eh     change       -0.1422846E-04 Eh
 * total energy  :  -136.6472283 Eh     change       -0.2266651E-04 Eh
 * total energy  :  -136.6472461 Eh     change       -0.1777902E-04 Eh
 * total energy  :  -136.6472650 Eh     change       -0.1894468E-04 Eh
 * total energy  :  -136.6472817 Eh     change       -0.1667764E-04 Eh
 * total energy  :  -136.6472954 Eh     change       -0.1370720E-04 Eh
 * total energy  :  -136.6473011 Eh     change       -0.5671257E-05 Eh
 * total energy  :  -136.6473061 Eh     change       -0.4970172E-05 Eh
   *** GEOMETRY OPTIMIZATION CONVERGED AFTER 45 ITERATIONS ***

 final structure:
================
76
 xtb: 6.4.1 (bd6e46d)
Cu        7.92925826879426   -0.05778781514481    0.04042299009668
C        10.41881375044959   -3.51121393165886    0.06936206760772
C        11.38147242909224   -2.55937420848292    0.10139884665643
C        10.70617709403067   -1.29335047717079    0.10152155921782
C        11.36597765457173   -0.05597786491364    0.13575550696342
C        10.70418644719429    1.18106551167064    0.13433705566650
C        11.37711635912394    2.44815324695306    0.17007455530314
C        10.41304935030661    3.39894183765582    0.15013510829703
C         9.15434593863496    2.71086146364916    0.10236531412420
N         9.36532236069526    1.36653050853262    0.09505589789191
C         7.92530543693794    3.34500260665815    0.06481411209644
C         6.69829705875602    2.70708715859615    0.01725697508218
C         5.43352109911492    3.38986855262674   -0.02309797999459
C         4.47650127772301    2.43473985568986   -0.05956329261405
C         5.15546553075887    1.16721010385307   -0.04139538469857
N         6.49701668308493    1.36518116146836    0.00375806642495
C         4.51511275508702   -0.05962576288477   -0.06284096701408
C         5.15648104484056   -1.28593368411224   -0.04403234236227
C         4.47895600285957   -2.55415423580633   -0.06385700158457
C         5.43736730930777   -3.50826746479290   -0.03926230821415
C         6.70156496672156   -2.82423175918663   -0.00523648562413
N         6.49843357268831   -1.48251946132218   -0.00739598857301
C         7.92996528456822   -3.46045143907896    0.01948591434833
C         9.15847989504589   -2.82472640491792    0.05010730225520
N         9.36725278245826   -1.48030303867718    0.06921356260761
H        10.53226783409201   -4.57807318996316    0.05821849641517
H        12.44736349136943   -2.68028590763585    0.12228108549614
H        12.44194826564199    2.57042447669615    0.20494521645188
H        10.52467610136065    4.46569895558053    0.16444705197392
H         7.92479007109611    4.42550138224334    0.07282914887037
H         5.31765627582228    4.45667894541595   -0.02314194428363
H         3.41054987633802    2.55345582050907   -0.09527511368675
H         3.43532525449798   -0.05999446314497   -0.09612896861412
H         3.41304534637493   -2.67394798633317   -0.09222485576176
H         5.32272296983422   -4.57517767673312   -0.04345346683426
H         7.93107727309892   -4.54098711313525    0.01325243141781
C        12.76326533567632   -0.05424274604819    0.17070611882922
C        13.98100789092892   -0.04442282749502    0.19628473129730
C        15.32283074484932   -0.03362537674115    0.21140196344695
C        16.54078808342771   -0.01045622807804    0.20819297389964
Cu       21.36771131102246    0.06030173444095   -0.04447920917600
C        18.84052589543657    3.47696121834148    0.20409851566204
C        17.89104737259678    2.51170415923655    0.23326149802915
C        18.58075508771460    1.25567963404962    0.15756888967458
C        17.93786521207977    0.00911497049587    0.17130851537035
C        18.61686625105989   -1.21809884023246    0.14826179295295
C        17.96451275510383   -2.49433718517810    0.21410015264236
C        18.94214120543233   -3.43084828375678    0.18124313155829
C        20.18813487059126   -2.72492426877654    0.08612422194472
N        19.95670654822104   -1.38411789320297    0.07293273830149
C        21.42393339304796   -3.34125252539054    0.00167932303312
C        22.63577590352513   -2.68611931113611   -0.12698376515774
C        23.90508167058846   -3.35052477772324   -0.24790796115459
C        24.84138637538215   -2.38206346844345   -0.36974321501286
C        24.14607098630820   -1.12450665863020   -0.31668506395917
N        22.81472416034860   -1.34173320779413   -0.17108438899147
C        24.76422506267494    0.11145538921723   -0.39282382904346
C        24.10938291736367    1.32818906505682   -0.31454255789084
C        24.76679914393366    2.60594439123690   -0.36580943571809
C        23.80213137251889    3.54571102257711   -0.23989087209484
C        22.55353925648482    2.84354689072395   -0.11806134679900
N        22.77237368526100    1.50516600153721   -0.16657121945658
C        21.32317885647669    3.46186528703911    0.01653424656109
C        20.10661394145020    2.80878051986141    0.10191677498266
N        19.91497218600047    1.46174612112180    0.08088596531725
H        18.71418872220020    4.54168182769386    0.24323760021765
H        16.82571793880540    2.61736555214168    0.30361080526325
H        16.90300270832336   -2.63188446367691    0.28124156949356
H        18.84732221583360   -4.49899751577102    0.21312836904204
H        21.44166824007558   -4.42144756236878    0.02447922027394
H        24.03759644022775   -4.41535559574713   -0.24146220406509
H        25.90338667169843   -2.48561658389184   -0.48285424130103
H        25.83786152196223    0.12758384085610   -0.51125720321676
H        25.82510306917701    2.74134100397541   -0.48036465341046
H        23.90280421505697    4.61401235145223   -0.23107259631870
H        21.30893766876821    4.54201263631369    0.04379047957034

          :  Hamiltonian                  GFN2-xTB          :
         :: gradient norm              0.000938745719 Eh/a0 ::
         :: HOMO-LUMO gap              0.000083909501 eV    ::
         :: SCC energy              -139.021228549256 Eh    ::
         :: -> dispersion             -0.117981106346 Eh    ::
         :: repulsion energy           2.375205615926 Eh    ::

    * Orbital Energies and Occupations

         #    Occupation            Energy/Eh            Energy/eV
      -------------------------------------------------------------
         1        2.0000           -0.6780196             -18.4499
       ...           ...                  ...                  ...
       118        2.0000           -0.3898870             -10.6094
       119        2.0000           -0.3897278             -10.6050
       120        2.0000           -0.3760862             -10.2338
       121        2.0000           -0.3759203             -10.2293
       122        2.0000           -0.3756783             -10.2227
       123        2.0000           -0.3754956             -10.2178
       124        2.0000           -0.3699913             -10.0680
       125        2.0000           -0.3698951             -10.0654
       126        2.0000           -0.3684869             -10.0270
       127        2.0000           -0.3683608             -10.0236
       128        2.0000           -0.3682892             -10.0217
       129        2.0000           -0.3538389              -9.6284
       130        1.0009           -0.3202195              -8.7136 (HOMO)
       131        0.9991           -0.3202160              -8.7135 (LUMO)
       132        0.0000           -0.3093766              -8.4186
       133                         -0.2987353              -8.1290
       134                         -0.2986448              -8.1265
       135                         -0.2945144              -8.0141
       136                         -0.2649372              -7.2093
       137                         -0.2562346              -6.9725
       138                         -0.2265841              -6.1657
       139                         -0.2058673              -5.6019
       140                         -0.1904703              -5.1830
       141                         -0.1904037              -5.1811
       ...                                ...                  ...
       248                          1.6328514              44.4321
      -------------------------------------------------------------
                  HL-Gap            0.0000034 Eh            0.0001 eV

     #   Z          covCN         q      C6AA      α(0)
     1  29 Cu       2.954     0.196   146.210    27.533
     2   6 C        3.023    -0.051    29.235     8.869
     3   6 C        3.020    -0.049    29.192     8.863
     4   6 C        3.164     0.079    25.922     8.321
     5   6 C        2.953     0.017    27.630     8.621
     6   6 C        3.164     0.079    25.924     8.321
     7   6 C        3.020    -0.049    29.195     8.863
     8   6 C        3.022    -0.051    29.236     8.869
     9   6 C        3.148     0.077    26.026     8.345
    10   7 N        2.619    -0.172    24.731     7.386
    11   6 C        2.901    -0.050    29.232     8.865
    12   6 C        3.144     0.078    26.013     8.345
    13   6 C        3.019    -0.050    29.213     8.866
    14   6 C        3.019    -0.050    29.217     8.866
    15   6 C        3.144     0.079    25.998     8.343
    16   7 N        2.622    -0.170    24.694     7.380
    17   6 C        2.901    -0.051    29.274     8.871
    18   6 C        3.144     0.079    25.998     8.343
    19   6 C        3.019    -0.050    29.217     8.866
    20   6 C        3.019    -0.050    29.213     8.866
    21   6 C        3.144     0.078    26.013     8.345
    22   7 N        2.622    -0.170    24.694     7.380
    23   6 C        2.901    -0.050    29.232     8.865
    24   6 C        3.148     0.077    26.026     8.345
    25   7 N        2.620    -0.172    24.732     7.386
    26   1 H        0.926     0.034     2.532     2.488
    27   1 H        0.926     0.036     2.506     2.476
    28   1 H        0.926     0.036     2.506     2.475
    29   1 H        0.926     0.034     2.530     2.488
    30   1 H        0.926     0.049     2.327     2.385
    31   1 H        0.926     0.035     2.522     2.483
    32   1 H        0.926     0.035     2.523     2.484
    33   1 H        0.926     0.049     2.335     2.390
    34   1 H        0.926     0.035     2.523     2.484
    35   1 H        0.926     0.035     2.522     2.483
    36   1 H        0.926     0.049     2.327     2.385
    37   6 C        1.995    -0.021    31.589     9.077
    38   6 C        1.963    -0.009    31.321     9.038
    39   6 C        1.963    -0.009    31.319     9.038
    40   6 C        1.995    -0.021    31.592     9.077
    41  29 Cu       2.956     0.196   146.209    27.533
    42   6 C        3.022    -0.051    29.236     8.869
    43   6 C        3.020    -0.049    29.192     8.863
    44   6 C        3.164     0.079    25.922     8.321
    45   6 C        2.953     0.017    27.628     8.621
    46   6 C        3.164     0.079    25.923     8.321
    47   6 C        3.020    -0.049    29.194     8.863
    48   6 C        3.023    -0.051    29.236     8.869
    49   6 C        3.148     0.077    26.025     8.345
    50   7 N        2.620    -0.172    24.731     7.386
    51   6 C        2.901    -0.050    29.231     8.865
    52   6 C        3.144     0.078    26.013     8.345
    53   6 C        3.019    -0.050    29.213     8.866
    54   6 C        3.020    -0.050    29.217     8.866
    55   6 C        3.144     0.079    25.999     8.343
    56   7 N        2.623    -0.170    24.693     7.380
    57   6 C        2.901    -0.051    29.275     8.871
    58   6 C        3.144     0.079    25.998     8.343
    59   6 C        3.020    -0.050    29.217     8.866
    60   6 C        3.019    -0.050    29.212     8.866
    61   6 C        3.144     0.078    26.013     8.345
    62   7 N        2.623    -0.170    24.693     7.380
    63   6 C        2.901    -0.050    29.231     8.865
    64   6 C        3.148     0.077    26.025     8.345
    65   7 N        2.620    -0.172    24.731     7.386
    66   1 H        0.926     0.034     2.530     2.488
    67   1 H        0.926     0.036     2.506     2.476
    68   1 H        0.926     0.036     2.505     2.475
    69   1 H        0.926     0.034     2.530     2.488
    70   1 H        0.926     0.049     2.326     2.385
    71   1 H        0.926     0.035     2.521     2.483
    72   1 H        0.926     0.035     2.522     2.484
    73   1 H        0.926     0.049     2.335     2.390
    74   1 H        0.926     0.035     2.522     2.484
    75   1 H        0.926     0.035     2.522     2.483
    76   1 H        0.926     0.049     2.326     2.385

Wiberg/Mayer (AO) data.
largest (>0.10) Wiberg bond orders for each atom

     #   Z sym  total        # sym  WBO       # sym  WBO       # sym  WBO
 ---------------------------------------------------------------------------
     1  29 Cu   2.321 --    16 N    0.533    22 N    0.532    25 N    0.531
                            10 N    0.531
     2   6 C    3.946 --     3 C    1.651    24 C    1.166    26 H    0.972
     3   6 C    3.950 --     2 C    1.651     4 C    1.174    27 H    0.971
     4   6 C    3.909 --    25 N    1.289     5 C    1.250     3 C    1.174
     5   6 C    3.942 --     4 C    1.250     6 C    1.250    37 C    1.184
     6   6 C    3.909 --    10 N    1.289     5 C    1.250     7 C    1.174
     7   6 C    3.950 --     8 C    1.651     6 C    1.174    28 H    0.971
     8   6 C    3.946 --     7 C    1.651     9 C    1.166    29 H    0.972
     9   6 C    3.922 --    11 C    1.355    10 N    1.249     8 C    1.166
    10   7 N    3.381 --     6 C    1.289     9 C    1.249     1 Cu   0.531
    11   6 C    3.932 --     9 C    1.355    12 C    1.351    30 H    0.964
    12   6 C    3.927 --    11 C    1.351    16 N    1.264    13 C    1.158
    13   6 C    3.950 --    14 C    1.666    12 C    1.158    31 H    0.972
    14   6 C    3.948 --    13 C    1.666    15 C    1.157    32 H    0.972
    15   6 C    3.930 --    17 C    1.351    16 N    1.266    14 C    1.157
    16   7 N    3.377 --    15 C    1.266    12 C    1.264     1 Cu   0.533
    17   6 C    3.927 --    15 C    1.351    18 C    1.351    33 H    0.964
    18   6 C    3.930 --    17 C    1.351    22 N    1.266    19 C    1.157
    19   6 C    3.948 --    20 C    1.666    18 C    1.157    34 H    0.972
    20   6 C    3.950 --    19 C    1.666    21 C    1.158    35 H    0.972
    21   6 C    3.927 --    23 C    1.352    22 N    1.264    20 C    1.158
    22   7 N    3.376 --    18 C    1.266    21 C    1.264     1 Cu   0.532
    23   6 C    3.932 --    24 C    1.355    21 C    1.352    36 H    0.964
    24   6 C    3.922 --    23 C    1.355    25 N    1.250     2 C    1.166
    25   7 N    3.381 --     4 C    1.289    24 C    1.250     1 Cu   0.531
    26   1 H    0.998 --     2 C    0.972
    27   1 H    0.998 --     3 C    0.971
    28   1 H    0.998 --     7 C    0.971
    29   1 H    0.998 --     8 C    0.972
    30   1 H    0.996 --    11 C    0.964
    31   1 H    0.998 --    13 C    0.972
    32   1 H    0.998 --    14 C    0.972
    33   1 H    0.997 --    17 C    0.964
    34   1 H    0.998 --    19 C    0.972
    35   1 H    0.998 --    20 C    0.972
    36   1 H    0.996 --    23 C    0.964
    37   6 C    3.919 --    38 C    2.471     5 C    1.184    40 C    0.203
    38   6 C    3.928 --    37 C    2.471    39 C    1.304
    39   6 C    3.928 --    40 C    2.471    38 C    1.304
    40   6 C    3.920 --    39 C    2.471    45 C    1.185    37 C    0.203
    41  29 Cu   2.322 --    62 N    0.533    56 N    0.533    65 N    0.531
                            50 N    0.531
    42   6 C    3.946 --    43 C    1.651    64 C    1.167    66 H    0.972
    43   6 C    3.950 --    42 C    1.651    44 C    1.175    67 H    0.971
    44   6 C    3.909 --    65 N    1.289    45 C    1.250    43 C    1.175
    45   6 C    3.942 --    44 C    1.250    46 C    1.250    40 C    1.185
    46   6 C    3.909 --    50 N    1.289    45 C    1.250    47 C    1.175
    47   6 C    3.950 --    48 C    1.651    46 C    1.175    68 H    0.971
    48   6 C    3.946 --    47 C    1.651    49 C    1.167    69 H    0.972
    49   6 C    3.922 --    51 C    1.355    50 N    1.249    48 C    1.167
    50   7 N    3.382 --    46 C    1.289    49 C    1.249    41 Cu   0.531
    51   6 C    3.932 --    49 C    1.355    52 C    1.352    70 H    0.964
    52   6 C    3.927 --    51 C    1.352    56 N    1.264    53 C    1.158
    53   6 C    3.950 --    54 C    1.666    52 C    1.158    71 H    0.972
    54   6 C    3.948 --    53 C    1.666    55 C    1.157    72 H    0.972
    55   6 C    3.930 --    57 C    1.351    56 N    1.266    54 C    1.157
    56   7 N    3.377 --    55 C    1.266    52 C    1.264    41 Cu   0.533
    57   6 C    3.927 --    55 C    1.351    58 C    1.351    73 H    0.964
    58   6 C    3.930 --    57 C    1.351    62 N    1.266    59 C    1.158
    59   6 C    3.948 --    60 C    1.666    58 C    1.158    74 H    0.972
    60   6 C    3.950 --    59 C    1.666    61 C    1.158    75 H    0.972
    61   6 C    3.927 --    63 C    1.352    62 N    1.264    60 C    1.158
    62   7 N    3.377 --    58 C    1.266    61 C    1.264    41 Cu   0.533
    63   6 C    3.932 --    64 C    1.355    61 C    1.352    76 H    0.964
    64   6 C    3.922 --    63 C    1.355    65 N    1.249    42 C    1.167
    65   7 N    3.382 --    44 C    1.289    64 C    1.249    41 Cu   0.531
    66   1 H    0.998 --    42 C    0.972
    67   1 H    0.998 --    43 C    0.971
    68   1 H    0.998 --    47 C    0.971
    69   1 H    0.998 --    48 C    0.972
    70   1 H    0.996 --    51 C    0.964
    71   1 H    0.998 --    53 C    0.972
    72   1 H    0.998 --    54 C    0.972
    73   1 H    0.997 --    57 C    0.964
    74   1 H    0.998 --    59 C    0.972
    75   1 H    0.998 --    60 C    0.972
    76   1 H    0.996 --    63 C    0.964
 ---------------------------------------------------------------------------

molecular dipole:
                 x           y           z       tot (Debye)
 q only:        0.010       0.004      -0.023
   full:        0.010       0.005      -0.037       0.099

 projected vibrational frequencies (cm⁻¹)
eigval :       -0.00    -0.00     0.00     0.00     0.00     0.00
eigval :        0.53     6.58     7.65    15.92    34.33    36.28
eigval :       38.77    39.27    58.85    68.92    82.27    84.25
eigval :       98.12   120.46   120.69   122.98   142.70   144.08
eigval :      148.95   165.13   165.91   184.16   184.75   188.68
eigval :      201.02   204.43   207.77   209.65   209.87   213.64
eigval :      217.77   218.10   220.15   233.27   259.87   260.15
eigval :      269.65   306.55   313.84   318.84   321.90   348.85
eigval :      351.30   358.47   363.61   365.84   368.29   371.13
eigval :      374.74   382.38   387.06   391.89   391.92   392.28
eigval :      393.23   394.04   426.43   426.78   428.13   428.52
eigval :      458.21   458.49   503.36   506.89   518.90   611.90
eigval :      612.03   617.66   618.01   622.35   622.37   642.40
eigval :      642.48   642.97   643.16   651.12   651.13   657.43
eigval :      657.45   667.82   668.92   718.08   719.71   723.02
eigval :      723.11   756.99   757.54   758.50   764.03   776.83
eigval :      776.91   778.12   778.91   795.88   797.10   797.67
eigval :      797.78   804.80   805.08   810.12   810.55   817.45
eigval :      818.22   818.53   826.26   826.54   833.07   833.46
eigval :      836.65   837.03   841.83   842.23   843.02   843.30
eigval :      843.36   843.44   845.25   845.42   931.75  1000.07
eigval :     1001.74  1002.92  1003.61  1003.83  1024.50  1028.97
eigval :     1029.14  1034.32  1034.49  1035.84  1040.14  1040.59
eigval :     1043.52  1043.81  1066.40  1066.59  1067.76  1069.07
eigval :     1069.96  1070.80  1075.24  1079.57  1130.42  1150.84
eigval :     1154.51  1154.55  1169.40  1174.96  1175.06  1175.16
eigval :     1227.42  1227.61  1231.84  1241.38  1241.99  1288.08
eigval :     1288.38  1301.06  1301.71  1301.83  1303.62  1319.84
eigval :     1320.12  1333.14  1333.59  1339.34  1344.47  1344.62
eigval :     1344.67  1365.54  1367.66  1367.68  1367.80  1403.89
eigval :     1453.26  1453.66  1454.73  1465.65  1481.63  1482.10
eigval :     1499.53  1506.16  1510.09  1510.21  1521.47  1521.99
eigval :     1527.78  1529.23  1536.90  1537.01  1551.59  1553.24
eigval :     1559.46  1559.58  1568.94  1570.37  1603.00  1603.22
eigval :     2229.65  2235.51  3083.83  3083.87  3084.13  3084.37
eigval :     3086.55  3086.88  3147.28  3147.73  3148.14  3148.19
eigval :     3151.29  3151.71  3153.48  3154.81  3161.08  3161.50
eigval :     3161.86  3162.11  3165.30  3165.84  3168.87  3169.96

   temp. (K)  partition function   enthalpy   heat capacity  entropy
                                   cal/mol     cal/K/mol   cal/K/mol   J/K/mol
 298.15  VIB  0.124E+19            24658.481    163.859    151.040
         ROT  0.183E+09              888.752      2.981     40.786
         INT  0.226E+27            25547.233    166.840    191.826
         TR   0.215E+29             1481.254      4.968     45.857
         TOT                       27028.4872   171.8080   237.6831   994.4662

       T/K    H(0)-H(T)+PV         H(T)/Eh          T*S/Eh         G(T)/Eh
   ------------------------------------------------------------------------
    298.15    0.430726E-01    0.571205E+00    0.112931E+00    0.458274E+00
   ------------------------------------------------------------------------

         :::::::::::::::::::::::::::::::::::::::::::::::::::::
         ::                  THERMODYNAMIC                  ::
         :::::::::::::::::::::::::::::::::::::::::::::::::::::
         :: total free energy        -136.189031688622 Eh   ::
         ::.................................................::
         :: total energy             -136.647306079265 Eh   ::
         :: zero point energy           0.528132674614 Eh   ::
         :: G(RRHO) w/o ZPVE           -0.069858283972 Eh   ::
         :: G(RRHO) contrib.            0.458274390642 Eh   ::
         :::::::::::::::::::::::::::::::::::::::::::::::::::::

           -------------------------------------------------
          | TOTAL ENERGY             -136.647306079265 Eh   |
          | TOTAL ENTHALPY           -136.076100768624 Eh   |
          | TOTAL FREE ENERGY        -136.189031688622 Eh   |
          | GRADIENT NORM               0.000938772931 Eh/α |
          | HOMO-LUMO GAP               0.000092991260 eV   |
           -------------------------------------------------

 * finished run on 2021/11/19 at 10:47:28.204
