   * xtb version 6.4.1 (bd6e46d) compiled by 'conda@4901f00b25ba' on 2021-06-10
          program call               : /home/jeff/miniconda3/bin/xtb input_structure_1.xyz --gfn 2 --ohess normal --parallel 1 --etemp 300 --chrg 0 --uhf 0 -I det_control.in
          number of atoms            :                   114
          number of electrons        :                   354
          charge                     :                     0
          spin                       :                   0.0

   ID    Z sym.   atoms
    1    6 C      1-8, 10-14, 16-20, 22, 23, 38-45, 47-51, 53-57, 59, 60,
                  75-86, 88-92, 94-98, 100, 101
    2    7 N      9, 15, 21, 24, 46, 52, 58, 61, 87, 93, 99, 102
    3    1 H      25-37, 62-74, 103-114

          :  Hamiltonian                  GFN2-xTB          :
 * total energy  :  -190.9963675 Eh     change       -0.1185452E-07 Eh
 * total energy  :  -191.1295878 Eh     change       -0.1332203E+00 Eh
 * total energy  :  -191.1913681 Eh     change       -0.6178024E-01 Eh
 * total energy  :  -191.2208907 Eh     change       -0.2952263E-01 Eh
 * total energy  :  -191.2463772 Eh     change       -0.2548654E-01 Eh
 * total energy  :  -191.2675490 Eh     change       -0.2117182E-01 Eh
 * total energy  :  -191.2855911 Eh     change       -0.1804209E-01 Eh
 * total energy  :  -191.3007746 Eh     change       -0.1518347E-01 Eh
 * total energy  :  -191.3135975 Eh     change       -0.1282288E-01 Eh
 * total energy  :  -191.3244436 Eh     change       -0.1084617E-01 Eh
 * total energy  :  -191.3755579 Eh     change       -0.6344338E-05 Eh
 * total energy  :  -191.3755651 Eh     change       -0.7228714E-05 Eh
 * total energy  :  -191.3755722 Eh     change       -0.7102828E-05 Eh
 * total energy  :  -191.3755785 Eh     change       -0.6274867E-05 Eh
 * total energy  :  -191.3755842 Eh     change       -0.5758555E-05 Eh
 * total energy  :  -191.3755904 Eh     change       -0.6169223E-05 Eh
 * total energy  :  -191.3755972 Eh     change       -0.6760759E-05 Eh
 * total energy  :  -191.3756041 Eh     change       -0.6920901E-05 Eh
 * total energy  :  -191.3756058 Eh     change       -0.1670653E-05 Eh
   *** GEOMETRY OPTIMIZATION CONVERGED AFTER 122 ITERATIONS ***

 final structure:
================
114
 xtb: 6.4.1 (bd6e46d)
C         8.13359059714903   -0.00375636750357   -3.29948161780523
C         7.26239283201036   -0.13355594048866   -2.28009145164654
C         8.04911002656245   -0.02263719904939   -1.06485656109687
C         7.49116415288798   -0.10670685568111    0.22616688041126
C         8.22927990190155    0.02447174242924    1.41289976455615
C         7.74754717115255   -0.07416673502021    2.74542034791638
C         8.80837075912381    0.12192103139034    3.58173531010136
C         9.96253739394438    0.34138404414111    2.77794621147726
N         9.56224284720275    0.26962327340571    1.47847850967636
C        11.24988716696465    0.58378993153090    3.23440879644668
C        12.39290378257078    0.78834564848766    2.47415118509548
C        13.69772274533962    1.03825391712008    3.07007124363724
C        14.55838051150413    1.18007672576969    2.04519126380409
C        13.77317380904875    1.01461189922523    0.83187920602475
N        12.47672112463068    0.78280208942461    1.12780080837370
C        14.31559583192683    1.08771583173857   -0.44499265866557
C        13.60641962795042    0.93493891081671   -1.62641289025814
C        14.09716497763765    1.00136731665772   -2.96174939476014
C        13.04115882283864    0.79767699055382   -3.79986521098031
C        11.87826630607035    0.60150505528913   -2.99895513542759
N        12.27066650260668    0.69123303543480   -1.70105183574098
C        10.58809614102996    0.37439650773042   -3.45405415079275
C         9.44076749288202    0.19244892480289   -2.69616839128295
N         9.34818775761397    0.17704211557088   -1.34496107996688
H         7.94536057072256   -0.02689241821835   -4.35571520941879
H         6.19957351787344   -0.27347280343023   -2.31013282148206
H         6.73006511137431   -0.28032232631404    3.01401284466736
H         8.80330612461918    0.11471348883687    4.65435531712226
H        10.15439602258527    0.37805534299367    0.66299546502130
H        11.37443686457616    0.61494653585540    4.30812549054350
H        13.88660239936259    1.09080883387260    4.12529740878116
H        15.61356304406757    1.37477852261518    2.06787943908332
H        15.37585780951297    1.27943429189190   -0.52422467546504
H        15.12002162842933    1.18219067511804   -3.22961630524841
H        13.05179655368837    0.78310759146474   -4.87256593747705
H        11.67729976248185    0.59683046863363   -0.88536014835322
H        10.46113231626486    0.34374830533243   -4.52759501249415
C        -8.70731129083737   -0.24215955505375    3.48094654030941
C        -7.68200380276389   -0.37393241584145    2.61695458922697
C        -8.25216764842083   -0.21264729142285    1.29156630785124
C        -7.48842896402765   -0.28652197638892    0.11073398575342
C        -8.02116058821439   -0.18106015650527   -1.18390649583970
C        -7.31335807555058   -0.23788396386068   -2.41448563670542
C        -8.22362570102236   -0.08287902309095   -3.41974843550862
C        -9.50655439583107    0.07972280393331   -2.82502384982189
N        -9.33216537858692    0.01042714236774   -1.47627003909279
C       -10.70557246441593    0.28417771533335   -3.49180918537089
C       -11.95984316393787    0.47949966082628   -2.93051964497854
C       -13.15418913108935    0.70142889551882   -3.73310041974760
C       -14.16781656803707    0.86136617192847   -2.86236957515688
C       -13.58508304075570    0.73462318551247   -1.53541336514905
N       -12.25742959107189    0.50480625677312   -1.61497433161000
C       -14.32455923271477    0.84085776039376   -0.36422473225809
C       -13.81670311609034    0.72411541783018    0.92049848949911
C       -14.52303778827169    0.81151092016684    2.15423891434760
C       -13.62152013088804    0.62632269057380    3.16024587314190
C       -12.34109545601109    0.42268361304666    2.56787809449183
N       -12.51111344581433    0.49187933796337    1.22126031469335
C       -11.14598194708920    0.19297672507327    3.23285959139208
C        -9.89156534927067   -0.00219171525380    2.67393363221197
N        -9.57689156279015    0.00264963633189    1.35656799181813
H        -8.69908713309630   -0.29781146062265    4.55260728544594
H        -6.64774357574399   -0.57644289064553    2.81649572560514
H        -6.25278222946542   -0.36855161050020   -2.50453623739271
H        -8.03413092808146   -0.07480494607650   -4.47548855153821
H       -10.06016614242793    0.09876154498238   -0.77680102647312
H       -10.65226156652503    0.30278942640272   -4.57163025320330
H       -13.17260135502005    0.72551069668445   -4.80595972969182
H       -15.20675868421200    1.04629259840453   -3.05790213415667
H       -15.38427183963468    1.02724951359569   -0.46213031478946
H       -15.57684315696912    0.99056187819235    2.24445704445122
H       -13.81133553856260    0.62821993910472    4.21615851916309
H       -11.78651918671711    0.38800375955581    0.52116174001817
H       -11.19914161471185    0.16337077198318    4.31253739997053
C         6.11047675802090   -0.31722335460069    0.33170994558227
C         4.90923845231776   -0.47998817176428    0.39361207223039
C        -4.90016252498667   -0.58083569862126    0.33071525234131
C        -6.10313002012087   -0.45848714586152    0.22704718464073
C         2.48922193127415    0.84826825741612    3.54274448765301
C         3.47475120910102    0.50508690068657    2.69051111728215
C         2.82143309229859   -0.11392565756767    1.55242909965550
C         3.51765054507610   -0.62345120184268    0.43938004665693
C         2.88978900469838   -1.25824534034428   -0.64525433327300
C         3.50460227159064   -1.88287050020507   -1.76173472018371
C         2.50819882244118   -2.38079840192328   -2.55196395002868
C         1.26434415549843   -2.06621842707055   -1.93690011791283
N         1.54754454188444   -1.39504022768427   -0.78691613950964
C         0.00489595295669   -2.37296757379728   -2.43359067732693
C        -1.23159738157224   -2.05706673086423   -1.89374803293209
C        -2.47975420485330   -2.40828303211276   -2.54975816869469
C        -3.46635371315266   -1.92304067292486   -1.77074071272331
C        -2.80932419308599   -1.29065214076110   -0.64193171607502
N        -1.47298597865879   -1.38948942074519   -0.73996362277663
C        -3.50668416848780   -0.67931862118963    0.41831839664765
C        -2.87972311124691   -0.14993320389710    1.55774042167028
C        -3.49167402606930    0.45388454304988    2.68729887180564
C        -2.49483772472892    0.81893043377527    3.54624801345798
C        -1.25264517184385    0.45866440775751    2.95269824947302
N        -1.53799177251278   -0.12842672653672    1.75817590598679
C         0.00749068493445    0.70340162892185    3.48077047007619
C         1.24379291982998    0.45287675195249    2.90669353449788
N         1.48661902248129   -0.12965091936571    1.70831715929436
H         2.56067776183797    1.32885635211615    4.49957679514976
H         4.53366815587893    0.64610530768421    2.78498288644962
H         4.56312977636061   -1.95299699771652   -1.91864433015717
H         2.61507510670109   -2.91587847911031   -3.47547353737499
H         0.88216040896470   -1.03740124117108   -0.11019681673651
H        -0.01015524784545   -2.91319938188931   -3.37059804712548
H        -2.55304549461249   -2.94675738101973   -3.47511823764452
H        -4.52912145214054   -1.98784173593714   -1.90152542883358
H        -4.54765812008853    0.59298567617505    2.81088106019249
H        -2.59971568274114    1.30123254727199    4.49860905436536
H        -0.87356938398696   -0.49544381261721    1.08554460199194
H         0.02342857529373    1.18151193212371    4.45095687709603

          :  Hamiltonian                  GFN2-xTB          :
         :: gradient norm              0.000298878073 Eh/a0 ::
         :: HOMO-LUMO gap              0.935991091990 eV    ::
         :: SCC energy              -194.857371273092 Eh    ::
         :: -> dispersion             -0.163335235678 Eh    ::
         :: repulsion energy           3.484077569798 Eh    ::

    * Orbital Energies and Occupations

         #    Occupation            Energy/Eh            Energy/eV
      -------------------------------------------------------------
         1        2.0000           -0.6836473             -18.6030
       ...           ...                  ...                  ...
       165        2.0000           -0.3875408             -10.5455
       166        2.0000           -0.3726555             -10.1405
       167        2.0000           -0.3720744             -10.1247
       168        2.0000           -0.3714622             -10.1080
       169        2.0000           -0.3714325             -10.1072
       170        2.0000           -0.3704650             -10.0809
       171        2.0000           -0.3704108             -10.0794
       172        2.0000           -0.3688505             -10.0369
       173        2.0000           -0.3681732             -10.0185
       174        2.0000           -0.3679836             -10.0133
       175        2.0000           -0.3654812              -9.9452
       176        2.0000           -0.3566758              -9.7056
       177        2.0000           -0.3461235              -9.4185 (HOMO)
       178                         -0.3117264              -8.4825 (LUMO)
       179                         -0.3002517              -8.1703
       180                         -0.2975001              -8.0954
       181                         -0.2969946              -8.0816
       182                         -0.2965727              -8.0702
       183                         -0.2889902              -7.8638
       184                         -0.2645138              -7.1978
       185                         -0.2561892              -6.9713
       186                         -0.2514520              -6.8424
       187                         -0.1912145              -5.2032
       188                         -0.1900312              -5.1710
       ...                                ...                  ...
       342                          1.4098266              38.3633
      -------------------------------------------------------------
                  HL-Gap            0.0343971 Eh            0.9360 eV

     #   Z          covCN         q      C6AA      α(0)
     1   6 C        3.016    -0.055    29.344     8.886
     2   6 C        3.010    -0.054    29.319     8.882
     3   6 C        3.194     0.086    25.602     8.250
     4   6 C        2.952     0.013    27.725     8.636
     5   6 C        3.094     0.064    26.463     8.431
     6   6 C        3.027    -0.049    29.190     8.862
     7   6 C        3.034    -0.052    29.256     8.872
     8   6 C        3.072     0.064    26.483     8.438
     9   7 N        2.786    -0.081    22.819     7.095
    10   6 C        2.899    -0.055    29.372     8.886
    11   6 C        3.170     0.087    25.721     8.285
    12   6 C        3.012    -0.054    29.317     8.882
    13   6 C        3.009    -0.054    29.319     8.882
    14   6 C        3.174     0.086    25.709     8.281
    15   7 N        1.870    -0.321    29.175     8.007
    16   6 C        2.899    -0.057    29.416     8.893
    17   6 C        3.075     0.065    26.472     8.436
    18   6 C        3.025    -0.051    29.243     8.870
    19   6 C        3.031    -0.051    29.233     8.869
    20   6 C        3.068     0.066    26.464     8.435
    21   7 N        2.787    -0.081    22.820     7.095
    22   6 C        2.899    -0.055    29.370     8.886
    23   6 C        3.174     0.085    25.734     8.285
    24   7 N        1.870    -0.324    29.255     8.018
    25   1 H        0.926     0.018     2.757     2.596
    26   1 H        0.926     0.020     2.734     2.585
    27   1 H        0.926     0.042     2.419     2.432
    28   1 H        0.926     0.041     2.430     2.438
    29   1 H        0.860     0.214     1.036     1.595
    30   1 H        0.925     0.047     2.360     2.402
    31   1 H        0.926     0.019     2.744     2.590
    32   1 H        0.926     0.019     2.743     2.590
    33   1 H        0.926     0.046     2.372     2.408
    34   1 H        0.926     0.042     2.426     2.436
    35   1 H        0.926     0.042     2.427     2.436
    36   1 H        0.860     0.215     1.035     1.593
    37   1 H        0.925     0.047     2.359     2.402
    38   6 C        3.016    -0.055    29.345     8.886
    39   6 C        3.010    -0.053    29.305     8.880
    40   6 C        3.193     0.086    25.602     8.251
    41   6 C        2.952     0.013    27.725     8.636
    42   6 C        3.095     0.064    26.461     8.431
    43   6 C        3.027    -0.050    29.203     8.864
    44   6 C        3.034    -0.052    29.253     8.871
    45   6 C        3.072     0.064    26.485     8.438
    46   7 N        2.786    -0.081    22.813     7.094
    47   6 C        2.899    -0.055    29.371     8.886
    48   6 C        3.171     0.087    25.719     8.285
    49   6 C        3.012    -0.054    29.317     8.882
    50   6 C        3.009    -0.054    29.320     8.882
    51   6 C        3.174     0.086    25.708     8.281
    52   7 N        1.870    -0.321    29.177     8.007
    53   6 C        2.899    -0.057    29.415     8.893
    54   6 C        3.074     0.065    26.471     8.436
    55   6 C        3.026    -0.051    29.243     8.870
    56   6 C        3.031    -0.051    29.233     8.869
    57   6 C        3.069     0.065    26.466     8.436
    58   7 N        2.787    -0.081    22.817     7.094
    59   6 C        2.899    -0.055    29.371     8.886
    60   6 C        3.174     0.085    25.731     8.285
    61   7 N        1.870    -0.324    29.262     8.018
    62   1 H        0.926     0.018     2.757     2.597
    63   1 H        0.926     0.019     2.749     2.593
    64   1 H        0.926     0.044     2.402     2.423
    65   1 H        0.926     0.041     2.429     2.437
    66   1 H        0.860     0.214     1.037     1.595
    67   1 H        0.925     0.047     2.360     2.402
    68   1 H        0.926     0.019     2.744     2.590
    69   1 H        0.926     0.019     2.744     2.590
    70   1 H        0.926     0.046     2.372     2.408
    71   1 H        0.926     0.042     2.426     2.436
    72   1 H        0.926     0.042     2.427     2.436
    73   1 H        0.860     0.214     1.036     1.594
    74   1 H        0.925     0.047     2.361     2.403
    75   6 C        1.993    -0.030    31.845     9.113
    76   6 C        1.991    -0.031    31.863     9.116
    77   6 C        1.992    -0.031    31.865     9.116
    78   6 C        1.993    -0.030    31.842     9.113
    79   6 C        3.017    -0.055    29.338     8.885
    80   6 C        3.009    -0.053    29.297     8.879
    81   6 C        3.193     0.086    25.604     8.251
    82   6 C        2.952     0.013    27.720     8.635
    83   6 C        3.098     0.063    26.467     8.431
    84   6 C        3.026    -0.050    29.212     8.866
    85   6 C        3.036    -0.052    29.255     8.872
    86   6 C        3.072     0.064    26.494     8.440
    87   7 N        2.786    -0.081    22.820     7.095
    88   6 C        2.899    -0.053    29.321     8.878
    89   6 C        3.173     0.085    25.746     8.288
    90   6 C        3.017    -0.055    29.339     8.885
    91   6 C        3.009    -0.053    29.309     8.881
    92   6 C        3.194     0.086    25.602     8.250
    93   7 N        1.871    -0.324    29.244     8.016
    94   6 C        2.952     0.013    27.723     8.636
    95   6 C        3.097     0.063    26.466     8.431
    96   6 C        3.025    -0.050    29.206     8.865
    97   6 C        3.036    -0.052    29.252     8.871
    98   6 C        3.072     0.064    26.491     8.439
    99   7 N        2.786    -0.082    22.825     7.096
   100   6 C        2.899    -0.053    29.324     8.879
   101   6 C        3.173     0.085    25.742     8.287
   102   7 N        1.871    -0.324    29.243     8.016
   103   1 H        0.926     0.019     2.755     2.595
   104   1 H        0.926     0.019     2.751     2.593
   105   1 H        0.926     0.043     2.410     2.428
   106   1 H        0.926     0.041     2.433     2.439
   107   1 H        0.860     0.215     1.035     1.593
   108   1 H        0.925     0.047     2.352     2.398
   109   1 H        0.926     0.019     2.755     2.596
   110   1 H        0.926     0.019     2.744     2.591
   111   1 H        0.926     0.043     2.410     2.428
   112   1 H        0.926     0.041     2.432     2.439
   113   1 H        0.860     0.214     1.035     1.594
   114   1 H        0.925     0.047     2.351     2.398

Wiberg/Mayer (AO) data.
largest (>0.10) Wiberg bond orders for each atom

     #   Z sym  total        # sym  WBO       # sym  WBO       # sym  WBO
 ---------------------------------------------------------------------------
     1   6 C    3.960 --     2 C    1.716    23 C    1.115    25 H    0.973
     2   6 C    3.961 --     1 C    1.716     3 C    1.122    26 H    0.969
     3   6 C    3.921 --    24 N    1.360     4 C    1.248     2 C    1.122
     4   6 C    3.940 --     5 C    1.254     3 C    1.248    75 C    1.178
     5   6 C    3.907 --     4 C    1.254     6 C    1.237     9 N    1.224
     6   6 C    3.956 --     7 C    1.593     5 C    1.237    27 H    0.970
     7   6 C    3.948 --     6 C    1.593     8 C    1.223    28 H    0.973
     8   6 C    3.918 --    10 C    1.344     7 C    1.223     9 N    1.203
     9   7 N    3.590 --     5 C    1.224     8 C    1.203    29 H    0.899
    10   6 C    3.921 --    11 C    1.358     8 C    1.344    30 H    0.964
    11   6 C    3.939 --    10 C    1.358    15 N    1.324    12 C    1.107
    12   6 C    3.963 --    13 C    1.731    11 C    1.107    31 H    0.973
    13   6 C    3.962 --    12 C    1.731    14 C    1.109    32 H    0.973
    14   6 C    3.938 --    16 C    1.354    15 N    1.325    13 C    1.109
    15   7 N    3.002 --    14 C    1.325    11 C    1.324
    16   6 C    3.923 --    14 C    1.354    17 C    1.347    33 H    0.965
    17   6 C    3.921 --    16 C    1.347    18 C    1.216    21 N    1.210
    18   6 C    3.949 --    19 C    1.608    17 C    1.216    34 H    0.973
    19   6 C    3.953 --    18 C    1.608    20 C    1.215    35 H    0.973
    20   6 C    3.916 --    22 C    1.343    19 C    1.215    21 N    1.211
    21   7 N    3.586 --    20 C    1.211    17 C    1.210    36 H    0.900
    22   6 C    3.937 --    23 C    1.365    20 C    1.343    37 H    0.963
    23   6 C    3.925 --    22 C    1.365    24 N    1.300     1 C    1.115
    24   7 N    3.010 --     3 C    1.360    23 C    1.300
    25   1 H    0.999 --     1 C    0.973
    26   1 H    0.999 --     2 C    0.969
    27   1 H    0.998 --     6 C    0.970
    28   1 H    0.998 --     7 C    0.973
    29   1 H    0.954 --     9 N    0.899
    30   1 H    0.997 --    10 C    0.964
    31   1 H    0.999 --    12 C    0.973
    32   1 H    0.999 --    13 C    0.973
    33   1 H    0.997 --    16 C    0.965
    34   1 H    0.998 --    18 C    0.973
    35   1 H    0.998 --    19 C    0.973
    36   1 H    0.954 --    21 N    0.900
    37   1 H    0.997 --    22 C    0.963
    38   6 C    3.960 --    39 C    1.716    60 C    1.115    62 H    0.973
    39   6 C    3.961 --    38 C    1.716    40 C    1.122    63 H    0.969
    40   6 C    3.922 --    61 N    1.360    41 C    1.249    39 C    1.122
    41   6 C    3.940 --    42 C    1.253    40 C    1.249    78 C    1.177
    42   6 C    3.907 --    41 C    1.253    43 C    1.236    46 N    1.225
    43   6 C    3.956 --    44 C    1.593    42 C    1.236    64 H    0.970
    44   6 C    3.949 --    43 C    1.593    45 C    1.223    65 H    0.973
    45   6 C    3.918 --    47 C    1.344    44 C    1.223    46 N    1.203
    46   7 N    3.590 --    42 C    1.225    45 C    1.203    66 H    0.900
    47   6 C    3.921 --    48 C    1.357    45 C    1.344    67 H    0.964
    48   6 C    3.939 --    47 C    1.357    52 N    1.324    49 C    1.107
    49   6 C    3.963 --    50 C    1.731    48 C    1.107    68 H    0.973
    50   6 C    3.962 --    49 C    1.731    51 C    1.109    69 H    0.973
    51   6 C    3.938 --    53 C    1.354    52 N    1.325    50 C    1.109
    52   7 N    3.002 --    51 C    1.325    48 C    1.324
    53   6 C    3.923 --    51 C    1.354    54 C    1.347    70 H    0.965
    54   6 C    3.921 --    53 C    1.347    55 C    1.216    58 N    1.210
    55   6 C    3.949 --    56 C    1.608    54 C    1.216    71 H    0.973
    56   6 C    3.953 --    55 C    1.608    57 C    1.215    72 H    0.973
    57   6 C    3.916 --    59 C    1.343    56 C    1.215    58 N    1.211
    58   7 N    3.586 --    57 C    1.211    54 C    1.210    73 H    0.900
    59   6 C    3.937 --    60 C    1.365    57 C    1.343    74 H    0.964
    60   6 C    3.925 --    59 C    1.365    61 N    1.301    38 C    1.115
    61   7 N    3.010 --    40 C    1.360    60 C    1.301
    62   1 H    0.999 --    38 C    0.973
    63   1 H    0.999 --    39 C    0.969
    64   1 H    0.998 --    43 C    0.970
    65   1 H    0.998 --    44 C    0.973
    66   1 H    0.954 --    46 N    0.900
    67   1 H    0.997 --    47 C    0.964
    68   1 H    0.999 --    49 C    0.973
    69   1 H    0.999 --    50 C    0.973
    70   1 H    0.997 --    53 C    0.965
    71   1 H    0.998 --    55 C    0.973
    72   1 H    0.998 --    56 C    0.973
    73   1 H    0.954 --    58 N    0.900
    74   1 H    0.997 --    59 C    0.964
    75   6 C    3.920 --    76 C    2.565     4 C    1.178
    76   6 C    3.924 --    75 C    2.565    82 C    1.181
    77   6 C    3.924 --    78 C    2.566    94 C    1.180
    78   6 C    3.920 --    77 C    2.566    41 C    1.177
    79   6 C    3.961 --    80 C    1.716   101 C    1.115   103 H    0.973
    80   6 C    3.961 --    79 C    1.716    81 C    1.123   104 H    0.969
    81   6 C    3.922 --   102 N    1.360    82 C    1.248    80 C    1.123
    82   6 C    3.927 --    81 C    1.248    83 C    1.248    76 C    1.181
    83   6 C    3.908 --    82 C    1.248    84 C    1.240    87 N    1.226
    84   6 C    3.953 --    85 C    1.588    83 C    1.240   105 H    0.970
    85   6 C    3.949 --    84 C    1.588    86 C    1.227   106 H    0.973
    86   6 C    3.915 --    88 C    1.336    85 C    1.227    87 N    1.204
    87   7 N    3.586 --    83 C    1.226    86 C    1.204   107 H    0.897
    88   6 C    3.923 --    89 C    1.370    86 C    1.336   108 H    0.963
    89   6 C    3.928 --    88 C    1.370    93 N    1.297    90 C    1.115
    90   6 C    3.961 --    91 C    1.715    89 C    1.115   109 H    0.973
    91   6 C    3.961 --    90 C    1.715    92 C    1.123   110 H    0.970
    92   6 C    3.923 --    93 N    1.361    94 C    1.247    91 C    1.123
    93   7 N    3.001 --    92 C    1.361    89 C    1.297
    94   6 C    3.927 --    95 C    1.251    92 C    1.247    77 C    1.180
    95   6 C    3.908 --    94 C    1.251    96 C    1.239    99 N    1.225
    96   6 C    3.953 --    97 C    1.589    95 C    1.239   111 H    0.970
    97   6 C    3.949 --    96 C    1.589    98 C    1.226   112 H    0.973
    98   6 C    3.914 --   100 C    1.337    97 C    1.226    99 N    1.204
    99   7 N    3.586 --    95 C    1.225    98 C    1.204   113 H    0.897
   100   6 C    3.923 --   101 C    1.369    98 C    1.337   114 H    0.963
   101   6 C    3.927 --   100 C    1.369   102 N    1.298    79 C    1.115
   102   7 N    3.001 --    81 C    1.360   101 C    1.298
   103   1 H    0.999 --    79 C    0.973
   104   1 H    0.999 --    80 C    0.969
   105   1 H    0.998 --    84 C    0.970
   106   1 H    0.998 --    85 C    0.973
   107   1 H    0.954 --    87 N    0.897
   108   1 H    0.997 --    88 C    0.963
   109   1 H    0.999 --    90 C    0.973
   110   1 H    0.999 --    91 C    0.970
   111   1 H    0.998 --    96 C    0.970
   112   1 H    0.998 --    97 C    0.973
   113   1 H    0.954 --    99 N    0.897
   114   1 H    0.997 --   100 C    0.963
 ---------------------------------------------------------------------------

molecular dipole:
                 x           y           z       tot (Debye)
 q only:       -0.001       0.065      -0.040
   full:       -0.006       0.115      -0.054       0.323

 projected vibrational frequencies (cm⁻¹)
eigval :       -0.00    -0.00    -0.00     0.00     0.00     0.00
eigval :        4.02     6.87     8.63    12.16    13.59    14.59
eigval :       25.06    31.69    38.83    42.49    43.04    46.25
eigval :       48.95    57.63    59.19    63.47    71.39    74.53
eigval :       83.50    93.71    95.39   106.05   109.21   114.95
eigval :      115.50   120.04   121.11   121.75   142.40   142.57
eigval :      143.95   166.94   171.89   177.14   183.02   188.04
eigval :      188.76   201.89   202.42   203.54   204.90   207.55
eigval :      235.28   258.92   264.07   265.26   266.44   267.89
eigval :      268.97   272.25   280.64   291.72   299.58   300.62
eigval :      304.52   323.15   330.90   335.57   339.67   340.04
eigval :      347.87   348.29   356.53   359.58   361.25   363.10
eigval :      363.53   365.17   376.71   394.34   394.40   394.52
eigval :      401.94   420.38   421.84   424.33   430.67   430.68
eigval :      444.53   445.41   447.27   448.63   498.54   499.24
eigval :      511.67   513.55   590.70   599.03   600.55   600.88
eigval :      602.09   605.05   605.35   606.91   625.84   627.87
eigval :      628.08   636.92   637.06   639.33   647.18   647.19
eigval :      649.76   650.13   650.97   650.98   653.88   653.94
eigval :      659.22   661.25   666.30   668.27   668.78   671.38
eigval :      673.39   714.08   714.31   723.04   723.26   729.35
eigval :      730.62   733.25   740.61   741.64   742.26   743.18
eigval :      748.29   748.41   755.04   760.68   761.15   761.39
eigval :      770.27   771.03   781.99   785.99   794.39   796.53
eigval :      798.46   798.54   804.74   805.89   806.25   807.38
eigval :      812.32   812.65   817.29   818.42   819.52   820.59
eigval :      827.85   828.03   836.28   837.13   837.38   838.99
eigval :      839.23   840.28   842.02   842.55   842.65   843.15
eigval :      843.80   844.93   852.33   852.33   853.81   854.30
eigval :      856.93   858.08   886.82   887.59   946.06   948.38
eigval :      959.61   959.94   960.34   971.88   972.43   972.79
eigval :      976.84   977.33   999.38   999.64  1000.28  1004.61
eigval :     1007.95  1009.27  1015.94  1016.12  1022.65  1030.80
eigval :     1031.93  1036.16  1051.77  1055.62  1058.08  1060.44
eigval :     1061.40  1061.76  1063.66  1063.69  1070.25  1070.58
eigval :     1071.18  1073.95  1074.84  1075.49  1096.76  1110.59
eigval :     1121.72  1122.02  1125.76  1131.20  1141.51  1150.07
eigval :     1157.92  1160.10  1174.65  1175.45  1182.07  1183.75
eigval :     1184.19  1189.04  1197.32  1204.72  1209.70  1214.78
eigval :     1230.71  1233.51  1233.67  1253.69  1256.01  1256.44
eigval :     1279.61  1285.54  1285.64  1293.67  1305.49  1306.00
eigval :     1329.09  1336.77  1338.63  1340.31  1345.97  1347.06
eigval :     1347.81  1350.05  1363.55  1365.79  1374.37  1374.40
eigval :     1377.06  1377.64  1383.15  1383.27  1383.56  1385.90
eigval :     1388.89  1388.92  1395.32  1401.67  1411.00  1443.57
eigval :     1458.88  1464.17  1475.27  1477.79  1479.49  1484.21
eigval :     1488.70  1501.03  1504.94  1505.06  1506.00  1506.94
eigval :     1508.10  1509.86  1510.64  1514.33  1514.62  1538.67
eigval :     1548.35  1550.14  1551.04  1554.70  1555.89  1557.24
eigval :     1560.73  1560.90  1582.37  1585.72  1585.87  1587.54
eigval :     1594.45  1594.52  2252.37  2256.42  3073.75  3074.05
eigval :     3076.22  3076.88  3077.22  3077.91  3086.16  3086.75
eigval :     3139.89  3139.90  3144.40  3144.67  3145.30  3145.52
eigval :     3155.01  3155.12  3156.45  3156.49  3160.13  3160.29
eigval :     3160.33  3160.53  3161.52  3162.14  3164.00  3165.02
eigval :     3168.94  3169.01  3173.56  3173.86  3174.24  3174.97
eigval :     3331.81  3335.31  3346.17  3349.68  3354.49  3358.18

   temp. (K)  partition function   enthalpy   heat capacity  entropy
                                   cal/mol     cal/K/mol   cal/K/mol   J/K/mol
 298.15  VIB  0.100E+30            35989.259    238.346    226.239
         ROT  0.497E+09              888.752      2.981     42.774
         INT  0.498E+38            36878.012    241.327    269.012
         TR   0.295E+29             1481.254      4.968     46.485
         TOT                       38359.2657   246.2948   315.4974  1320.0412

       T/K    H(0)-H(T)+PV         H(T)/Eh          T*S/Eh         G(T)/Eh
   ------------------------------------------------------------------------
    298.15    0.611294E-01    0.895983E+00    0.149903E+00    0.746080E+00
   ------------------------------------------------------------------------

         :::::::::::::::::::::::::::::::::::::::::::::::::::::
         ::                  THERMODYNAMIC                  ::
         :::::::::::::::::::::::::::::::::::::::::::::::::::::
         :: total free energy        -190.629525707771 Eh   ::
         ::.................................................::
         :: total energy             -191.375605769575 Eh   ::
         :: zero point energy           0.834853687767 Eh   ::
         :: G(RRHO) w/o ZPVE           -0.088773625964 Eh   ::
         :: G(RRHO) contrib.            0.746080061804 Eh   ::
         :::::::::::::::::::::::::::::::::::::::::::::::::::::

           -------------------------------------------------
          | TOTAL ENERGY             -191.375605769575 Eh   |
          | TOTAL ENTHALPY           -190.479622700821 Eh   |
          | TOTAL FREE ENERGY        -190.629525707771 Eh   |
          | GRADIENT NORM               0.000298840187 Eh/α |
          | HOMO-LUMO GAP               0.935991627010 eV   |
           -------------------------------------------------

 * finished run on 2021/11/18 at 17:23:42.211
