   * xtb version 6.4.1 (bd6e46d) compiled by 'conda@4901f00b25ba' on 2021-06-10
          program call               : /home/jeff/miniconda3/bin/xtb input_structure_1.xyz --gfn 2 --ohess normal --parallel 1 --etemp 300 --chrg 0 --uhf 0 -I det_control.in
          number of atoms            :                   119
          number of electrons        :                   410
          charge                     :                     0
          spin                       :                   0.0

   ID    Z sym.   atoms
    1   28 Ni     1, 37, 85
    2    6 C      2-9, 11-15, 17-21, 23, 24, 38-45, 47-51, 53-57, 59, 60,
                  73-84, 86-93, 95-99, 101-105, 107, 108
    3    7 N      10, 16, 22, 25, 46, 52, 58, 61, 94, 100, 106, 109
    4    1 H      26-36, 62-72, 110-119

          :  Hamiltonian                  GFN2-xTB          :
 * total energy  :  -218.7375240 Eh     change        0.3612152E-07 Eh
 * total energy  :  -219.0752337 Eh     change       -0.3377098E+00 Eh
 * total energy  :  -219.2261000 Eh     change       -0.1508662E+00 Eh
 * total energy  :  -219.3144362 Eh     change       -0.8833625E-01 Eh
 * total energy  :  -219.3704494 Eh     change       -0.5601316E-01 Eh
 * total energy  :  -219.4108063 Eh     change       -0.4035692E-01 Eh
 * total energy  :  -219.4396716 Eh     change       -0.2886527E-01 Eh
 * total energy  :  -219.4598254 Eh     change       -0.2015388E-01 Eh
 * total energy  :  -219.4758506 Eh     change       -0.1602518E-01 Eh
 * total energy  :  -219.4932204 Eh     change       -0.1736976E-01 Eh
 * total energy  :  -219.9809050 Eh     change       -0.8245974E-04 Eh
 * total energy  :  -219.9809451 Eh     change       -0.4012079E-04 Eh
 * total energy  :  -219.9809698 Eh     change       -0.2469667E-04 Eh
 * total energy  :  -219.9809888 Eh     change       -0.1898847E-04 Eh
 * total energy  :  -219.9810072 Eh     change       -0.1843199E-04 Eh
 * total energy  :  -219.9810300 Eh     change       -0.2276627E-04 Eh
 * total energy  :  -219.9810518 Eh     change       -0.2180019E-04 Eh
 * total energy  :  -219.9810696 Eh     change       -0.1784027E-04 Eh
 * total energy  :  -219.9810741 Eh     change       -0.4463808E-05 Eh
   *** GEOMETRY OPTIMIZATION CONVERGED AFTER 68 ITERATIONS ***

 final structure:
================
119
 xtb: 6.4.1 (bd6e46d)
Ni       11.93767115728511   -0.00430795258088   -0.01177153128644
C        14.43427822219676   -3.41609863147381    0.09491484636268
C        15.38619179154016   -2.45576353663671    0.09954976208067
C        14.69781052816761   -1.20136433430787    0.04396802673064
C        15.36453061588270    0.02708749194829    0.00143443209107
C        14.67585322863228    1.24317744362936   -0.04325329397936
C        15.34164704251238    2.51009571970494   -0.08893729511112
C        14.37240937089007    3.45296643226396   -0.08557504043156
C        13.12262111064151    2.75498009951634   -0.03944085271062
N        13.32353472729835    1.40033514029608   -0.02281960617620
C        11.90267385344104    3.39767134241988    0.00396914160912
C        10.69599646081844    2.72998183198099    0.03856513852352
C         9.42858412948298    3.40081284469606    0.08421123832807
C         8.48205048062077    2.43756623806807    0.07176049768389
C         9.17532174364497    1.18220899877511    0.01939568017614
N        10.52717333424428    1.37479511426333    0.00871964796994
C         8.52828335343377   -0.03550051501362   -0.03456195802111
C         9.19806168011512   -1.24129340417808   -0.07738209559148
C         8.52858026843535   -2.50926528666620   -0.13510182206883
C         9.49255259889056   -3.45513532623818   -0.12939228004655
C        10.74675437303401   -2.76110053432330   -0.06861496192203
N        10.55289598918900   -1.40913213807860   -0.04667981079441
C        11.96492285929602   -3.40637891827065   -0.01614378940912
C        13.17239555425638   -2.74123377547409    0.03629896970518
N        13.34876378837844   -1.38321979199939    0.01491868799976
H        14.55264123904904   -4.48171102029693    0.12612964945254
H        16.45306429875568   -2.56113668694825    0.13517041869481
H        16.40667250924387    2.63491719742003   -0.11684778125845
H        14.47154022484170    4.52072444132720   -0.11058264299403
H        11.89308972655583    4.47689524983440    0.00938080988876
H         9.30776202874487    4.46628342144204    0.11866021667078
H         7.41429750633877    2.53951723303808    0.09398111623230
H         7.44921902466580   -0.04530521788681   -0.04247632233399
H         7.46329718623774   -2.63078993773714   -0.17237003356471
H         9.39165401523659   -4.52275900640735   -0.16111463823309
H        11.97518149560208   -4.48560917327700   -0.01643848331288
Ni       43.91327783219368    0.02601649952006   -0.00799247331445
C        41.42587924786828    3.37501718109996    0.68843073838137
C        40.47108736764616    2.43276129533214    0.51847182972313
C        41.15610076723510    1.20452297851472    0.24887639108404
C        40.48608356529396    0.00329927192408   -0.00290206828779
C        41.17129872845692   -1.18980978060865   -0.25172680341482
C        40.50163205733952   -2.42863094503766   -0.51125363976991
C        41.46813956700599   -3.35987849770266   -0.67558816268688
C        42.72012489755947   -2.68281232730487   -0.51620015230645
N        42.52323659390520   -1.35122922545175   -0.26365513285052
C        43.93843769147027   -3.32505058617182   -0.59626951106704
C        45.14731402805353   -2.67604822106670   -0.45338158013136
C        46.41295314342283   -3.34638045956411   -0.53850210776215
C        47.36226892132690   -2.39861288449938   -0.38222497436353
C        46.67244315519775   -1.15337195743195   -0.20108438544600
N        45.31998930175123   -1.33804589684853   -0.23925463939805
C        47.32293725104631    0.05178679919924   -0.03140737212331
C        46.65670220369873    1.24642036398176    0.15109323107309
C        47.33011496513029    2.50101794533449    0.32939252678374
C        46.36897079949894    3.43285094780194    0.50771282220523
C        45.11253522583538    2.74386158358443    0.43640934248044
N        45.30231398191059    1.41009104361859    0.21077249953506
C        43.89597474450319    3.37398628792528    0.59743604050683
C        42.68613321367162    2.71550306268611    0.52094520541767
N        42.50587700740807    1.38322566563196    0.25967307703363
H        41.31051260063916    4.41919745402059    0.90510400228942
H        39.40430106067875    2.53471681145961    0.56525608162057
H        39.43615371655744   -2.54450438143651   -0.55538833389079
H        41.36581314423436   -4.40697087833265   -0.88441639059165
H        43.94482682882301   -4.38817236511952   -0.78220930805689
H        46.53076277960549   -4.40066113816160   -0.69856121478475
H        48.42982222792913   -2.50489497702894   -0.38562971002763
H        48.40200886645054    0.06012050166463   -0.03995640384243
H        48.39584692687372    2.62370623551452    0.31706017315221
H        46.47311811824452    4.48769091454016    0.67350377061400
H        43.88893048593427    4.43566726304777    0.79141371730238
C        16.76101053059532    0.03906329368403    0.00467905020825
C        17.98046262228221    0.04587622921132    0.00593568983594
C        19.31686486170617    0.05019223699195    0.00850789726027
C        20.54081249863266    0.05492710240364    0.00957710575903
C        21.87707857310991    0.05257668954923    0.00947604910691
C        23.09671271690359    0.05130218276996    0.00589601832618
C        32.75367084858868   -0.00763271432719   -0.00712648089222
C        33.97324396518098   -0.01092015967012   -0.00734589877108
C        35.30959482644258   -0.01176934106721   -0.00373775491008
C        36.53351895635962   -0.00992639993715   -0.00729254080946
C        37.87001948800803   -0.00899636683952   -0.00339204360451
C        39.08945305428576   -0.00565914671235   -0.00320393953817
Ni       27.92513137206060    0.02088011991504   -0.01004501811255
C        25.43513914503776   -3.37089868413387    0.43521698753392
C        24.47969174979807   -2.41901792272059    0.33598932047469
C        25.16416853608805   -1.17354714385119    0.16209213471126
C        24.49255678425359    0.04281844628334    0.00205450219515
C        25.17856882492170    1.25019692445047   -0.16408333631254
C        24.50873571006329    2.50396985376031   -0.33537272154503
C        25.47548573088532    3.44301019620880   -0.44658149886081
C        26.72685221929927    2.75523420620222   -0.34188003455219
N        26.53008424967079    1.41015955561410   -0.17435134992967
C        27.94542812065123    3.39911220334189   -0.39052389590388
C        29.15616787990966    2.74653453571795   -0.28952007829306
C        30.41558279570072    3.42620302251503   -0.33234561996579
C        31.37098413565624    2.47538945507582   -0.22312102182406
C        30.68629050001237    1.22255716737609   -0.11551334077628
N        29.33681470234558    1.39591758258883   -0.15100899348060
C        31.35771568487676    0.00023968598343   -0.00996943643949
C        30.67156435349378   -1.21417345253514    0.09168774633150
C        31.34118975901757   -2.47562916492575    0.19342933615357
C        30.37442049301515   -3.41558530542839    0.29651194459650
C        29.12326202914901   -2.72062693687405    0.25689508942019
N        29.32008379131557   -1.37162331533788    0.12480818378524
C        27.90489997784604   -3.35860397845022    0.35923444291539
C        26.69434032818503   -2.69904288552039    0.32165481609543
N        26.51356734799747   -1.35093759214388    0.16044742718450
H        25.32069174963483   -4.42865262259770    0.57141708098793
H        23.41293221860261   -2.52485614187072    0.37268943104548
H        23.44312199014408    2.62344941219247   -0.36247178998648
H        25.37357658359153    4.50175735044784   -0.58491463890605
H        27.95190410983504    4.47151147766798   -0.51250565567437
H        30.53013809330511    4.48790392089599   -0.43331190436598
H        32.43785556376938    2.58610750486645   -0.21523795420216
H        32.40669088451450   -2.59893879530427    0.18612374476727
H        30.47622681222935   -4.47902849636051    0.39223607792350
H        27.89847229876080   -4.43157542650999    0.47605974502351

          :  Hamiltonian                  GFN2-xTB          :
         :: gradient norm              0.000568687902 Eh/a0 ::
         :: HOMO-LUMO gap              1.108300350358 eV    ::
         :: SCC energy              -223.968867900482 Eh    ::
         :: -> dispersion             -0.188955884587 Eh    ::
         :: repulsion energy           3.990366872744 Eh    ::

    * Orbital Energies and Occupations

         #    Occupation            Energy/Eh            Energy/eV
      -------------------------------------------------------------
         1        2.0000           -0.6770210             -18.4227
       ...           ...                  ...                  ...
       193        2.0000           -0.3715593             -10.1106
       194        2.0000           -0.3714088             -10.1065
       195        2.0000           -0.3686897             -10.0326
       196        2.0000           -0.3686449             -10.0313
       197        2.0000           -0.3672351              -9.9930
       198        2.0000           -0.3672219              -9.9926
       199        2.0000           -0.3672176              -9.9925
       200        2.0000           -0.3672058              -9.9922
       201        2.0000           -0.3635055              -9.8915
       202        2.0000           -0.3628385              -9.8733
       203        2.0000           -0.3613283              -9.8322
       204        2.0000           -0.3613080              -9.8317
       205        2.0000           -0.3550909              -9.6625 (HOMO)
       206                         -0.3143616              -8.5542 (LUMO)
       207                         -0.3048997              -8.2967
       208                         -0.3007304              -8.1833
       209                         -0.3006788              -8.1819
       210                         -0.2994545              -8.1486
       211                         -0.2994414              -8.1482
       212                         -0.2984694              -8.1218
       213                         -0.2984430              -8.1210
       214                         -0.2979202              -8.1068
       215                         -0.2741477              -7.4599
       216                         -0.2637476              -7.1769
       ...                                ...                  ...
       395                          1.7156317              46.6847
      -------------------------------------------------------------
                  HL-Gap            0.0407293 Eh            1.1083 eV

     #   Z          covCN         q      C6AA      α(0)
     1  28 Ni       3.022    -0.292   189.385    28.395
     2   6 C        3.024    -0.052    29.267     8.874
     3   6 C        3.021    -0.051    29.231     8.869
     4   6 C        3.186     0.074    25.915     8.306
     5   6 C        2.956     0.025    27.441     8.592
     6   6 C        3.186     0.074    25.915     8.307
     7   6 C        3.021    -0.051    29.230     8.868
     8   6 C        3.024    -0.052    29.267     8.874
     9   6 C        3.172     0.073    26.005     8.330
    10   7 N        2.625    -0.048    22.179     6.994
    11   6 C        2.904    -0.041    29.027     8.834
    12   6 C        3.168     0.074    25.998     8.331
    13   6 C        3.020    -0.051    29.247     8.871
    14   6 C        3.021    -0.051    29.248     8.871
    15   6 C        3.168     0.075    25.992     8.330
    16   7 N        2.626    -0.047    22.158     6.991
    17   6 C        2.904    -0.043    29.070     8.841
    18   6 C        3.168     0.075    25.992     8.330
    19   6 C        3.021    -0.051    29.248     8.871
    20   6 C        3.020    -0.051    29.247     8.871
    21   6 C        3.168     0.074    25.998     8.331
    22   7 N        2.625    -0.047    22.159     6.991
    23   6 C        2.904    -0.041    29.027     8.834
    24   6 C        3.172     0.073    26.005     8.330
    25   7 N        2.625    -0.048    22.178     6.994
    26   1 H        0.926     0.035     2.511     2.478
    27   1 H        0.926     0.037     2.483     2.464
    28   1 H        0.926     0.037     2.483     2.464
    29   1 H        0.926     0.035     2.511     2.478
    30   1 H        0.926     0.049     2.330     2.387
    31   1 H        0.926     0.036     2.505     2.475
    32   1 H        0.926     0.036     2.506     2.475
    33   1 H        0.926     0.049     2.338     2.391
    34   1 H        0.926     0.036     2.506     2.475
    35   1 H        0.926     0.036     2.505     2.475
    36   1 H        0.926     0.049     2.330     2.387
    37  28 Ni       3.022    -0.292   189.385    28.395
    38   6 C        3.024    -0.052    29.267     8.874
    39   6 C        3.021    -0.051    29.231     8.869
    40   6 C        3.186     0.074    25.915     8.307
    41   6 C        2.956     0.025    27.441     8.592
    42   6 C        3.186     0.074    25.914     8.306
    43   6 C        3.021    -0.051    29.230     8.868
    44   6 C        3.024    -0.052    29.267     8.874
    45   6 C        3.172     0.073    26.004     8.330
    46   7 N        2.625    -0.048    22.179     6.994
    47   6 C        2.904    -0.041    29.028     8.834
    48   6 C        3.168     0.074    25.998     8.331
    49   6 C        3.020    -0.051    29.247     8.871
    50   6 C        3.021    -0.051    29.248     8.871
    51   6 C        3.168     0.075    25.992     8.330
    52   7 N        2.625    -0.047    22.158     6.991
    53   6 C        2.904    -0.043    29.071     8.841
    54   6 C        3.168     0.075    25.992     8.330
    55   6 C        3.021    -0.051    29.248     8.871
    56   6 C        3.020    -0.051    29.247     8.871
    57   6 C        3.168     0.074    25.998     8.331
    58   7 N        2.625    -0.047    22.159     6.991
    59   6 C        2.904    -0.041    29.028     8.834
    60   6 C        3.172     0.073    26.005     8.330
    61   7 N        2.625    -0.048    22.179     6.994
    62   1 H        0.926     0.035     2.511     2.478
    63   1 H        0.926     0.037     2.483     2.464
    64   1 H        0.926     0.037     2.483     2.464
    65   1 H        0.926     0.035     2.511     2.478
    66   1 H        0.926     0.049     2.330     2.387
    67   1 H        0.926     0.036     2.505     2.475
    68   1 H        0.926     0.036     2.506     2.475
    69   1 H        0.926     0.049     2.338     2.391
    70   1 H        0.926     0.036     2.506     2.475
    71   1 H        0.926     0.036     2.505     2.475
    72   1 H        0.926     0.049     2.330     2.387
    73   6 C        1.992    -0.020    31.572     9.074
    74   6 C        1.963    -0.010    31.322     9.038
    75   6 C        1.965    -0.002    31.113     9.008
    76   6 C        1.965    -0.002    31.127     9.010
    77   6 C        1.963    -0.009    31.310     9.036
    78   6 C        1.992    -0.020    31.588     9.076
    79   6 C        1.992    -0.020    31.587     9.076
    80   6 C        1.963    -0.009    31.309     9.036
    81   6 C        1.965    -0.002    31.126     9.010
    82   6 C        1.965    -0.002    31.112     9.008
    83   6 C        1.963    -0.009    31.322     9.038
    84   6 C        1.992    -0.020    31.570     9.074
    85  28 Ni       3.016    -0.286   189.258    28.386
    86   6 C        3.024    -0.052    29.263     8.873
    87   6 C        3.022    -0.051    29.229     8.868
    88   6 C        3.187     0.074    25.899     8.303
    89   6 C        2.956     0.025    27.439     8.592
    90   6 C        3.187     0.074    25.898     8.303
    91   6 C        3.022    -0.050    29.228     8.868
    92   6 C        3.024    -0.052    29.263     8.873
    93   6 C        3.173     0.073    25.999     8.328
    94   7 N        2.623    -0.050    22.215     7.000
    95   6 C        2.904    -0.039    28.979     8.827
    96   6 C        3.173     0.073    25.999     8.328
    97   6 C        3.024    -0.052    29.263     8.873
    98   6 C        3.022    -0.051    29.229     8.868
    99   6 C        3.187     0.074    25.899     8.303
   100   7 N        2.623    -0.050    22.214     7.000
   101   6 C        2.956     0.025    27.439     8.592
   102   6 C        3.187     0.074    25.899     8.303
   103   6 C        3.022    -0.050    29.228     8.868
   104   6 C        3.024    -0.052    29.263     8.873
   105   6 C        3.173     0.073    25.999     8.328
   106   7 N        2.623    -0.050    22.215     7.000
   107   6 C        2.904    -0.039    28.979     8.827
   108   6 C        3.173     0.073    25.999     8.328
   109   7 N        2.623    -0.050    22.214     7.000
   110   1 H        0.926     0.035     2.510     2.478
   111   1 H        0.926     0.037     2.483     2.464
   112   1 H        0.926     0.037     2.483     2.464
   113   1 H        0.926     0.035     2.511     2.478
   114   1 H        0.926     0.050     2.322     2.383
   115   1 H        0.926     0.035     2.510     2.478
   116   1 H        0.926     0.037     2.483     2.464
   117   1 H        0.926     0.037     2.483     2.464
   118   1 H        0.926     0.035     2.510     2.478
   119   1 H        0.926     0.050     2.322     2.383

Wiberg/Mayer (AO) data.
largest (>0.10) Wiberg bond orders for each atom

     #   Z sym  total        # sym  WBO       # sym  WBO       # sym  WBO
 ---------------------------------------------------------------------------
     1  28 Ni   3.476 --    10 N    0.753    25 N    0.753    16 N    0.751
                            22 N    0.751
     2   6 C    3.953 --     3 C    1.645    24 C    1.170    26 H    0.972
     3   6 C    3.957 --     2 C    1.645     4 C    1.179    27 H    0.970
     4   6 C    3.916 --    25 N    1.262     5 C    1.251     3 C    1.179
     5   6 C    3.945 --     6 C    1.251     4 C    1.251    73 C    1.183
     6   6 C    3.916 --    10 N    1.262     5 C    1.251     7 C    1.179
     7   6 C    3.957 --     8 C    1.645     6 C    1.179    28 H    0.970
     8   6 C    3.953 --     7 C    1.645     9 C    1.170    29 H    0.972
     9   6 C    3.930 --    11 C    1.355    10 N    1.227     8 C    1.170
    10   7 N    3.577 --     6 C    1.262     9 C    1.227     1 Ni   0.753
    11   6 C    3.935 --     9 C    1.355    12 C    1.353    30 H    0.964
    12   6 C    3.935 --    11 C    1.353    16 N    1.239    13 C    1.161
    13   6 C    3.957 --    14 C    1.661    12 C    1.161    31 H    0.972
    14   6 C    3.955 --    13 C    1.661    15 C    1.161    32 H    0.972
    15   6 C    3.937 --    17 C    1.353    16 N    1.242    14 C    1.161
    16   7 N    3.571 --    15 C    1.242    12 C    1.239     1 Ni   0.751
    17   6 C    3.931 --    18 C    1.353    15 C    1.353    33 H    0.964
    18   6 C    3.937 --    17 C    1.353    22 N    1.242    19 C    1.161
    19   6 C    3.955 --    20 C    1.661    18 C    1.161    34 H    0.972
    20   6 C    3.957 --    19 C    1.661    21 C    1.161    35 H    0.972
    21   6 C    3.935 --    23 C    1.353    22 N    1.239    20 C    1.161
    22   7 N    3.571 --    18 C    1.242    21 C    1.239     1 Ni   0.751
    23   6 C    3.935 --    24 C    1.355    21 C    1.353    36 H    0.964
    24   6 C    3.930 --    23 C    1.355    25 N    1.226     2 C    1.170
    25   7 N    3.577 --     4 C    1.262    24 C    1.226     1 Ni   0.753
    26   1 H    0.998 --     2 C    0.972
    27   1 H    0.998 --     3 C    0.970
    28   1 H    0.998 --     7 C    0.970
    29   1 H    0.998 --     8 C    0.972
    30   1 H    0.996 --    11 C    0.964
    31   1 H    0.998 --    13 C    0.972
    32   1 H    0.998 --    14 C    0.972
    33   1 H    0.997 --    17 C    0.964
    34   1 H    0.998 --    19 C    0.972
    35   1 H    0.998 --    20 C    0.972
    36   1 H    0.996 --    23 C    0.964
    37  28 Ni   3.475 --    46 N    0.753    61 N    0.753    52 N    0.751
                            58 N    0.751
    38   6 C    3.953 --    39 C    1.645    60 C    1.170    62 H    0.972
    39   6 C    3.957 --    38 C    1.645    40 C    1.179    63 H    0.970
    40   6 C    3.916 --    61 N    1.262    41 C    1.251    39 C    1.179
    41   6 C    3.945 --    42 C    1.252    40 C    1.251    84 C    1.183
    42   6 C    3.916 --    46 N    1.262    41 C    1.252    43 C    1.179
    43   6 C    3.957 --    44 C    1.645    42 C    1.179    64 H    0.970
    44   6 C    3.953 --    43 C    1.645    45 C    1.170    65 H    0.972
    45   6 C    3.930 --    47 C    1.355    46 N    1.227    44 C    1.170
    46   7 N    3.577 --    42 C    1.262    45 C    1.227    37 Ni   0.753
    47   6 C    3.935 --    45 C    1.355    48 C    1.353    66 H    0.964
    48   6 C    3.935 --    47 C    1.353    52 N    1.239    49 C    1.161
    49   6 C    3.957 --    50 C    1.661    48 C    1.161    67 H    0.972
    50   6 C    3.955 --    49 C    1.661    51 C    1.161    68 H    0.972
    51   6 C    3.937 --    53 C    1.353    52 N    1.242    50 C    1.161
    52   7 N    3.571 --    51 C    1.242    48 C    1.239    37 Ni   0.751
    53   6 C    3.931 --    54 C    1.353    51 C    1.353    69 H    0.964
    54   6 C    3.937 --    53 C    1.353    58 N    1.242    55 C    1.161
    55   6 C    3.955 --    56 C    1.661    54 C    1.161    70 H    0.972
    56   6 C    3.957 --    55 C    1.661    57 C    1.161    71 H    0.972
    57   6 C    3.935 --    59 C    1.353    58 N    1.239    56 C    1.161
    58   7 N    3.571 --    54 C    1.242    57 C    1.239    37 Ni   0.751
    59   6 C    3.935 --    60 C    1.355    57 C    1.353    72 H    0.964
    60   6 C    3.930 --    59 C    1.355    61 N    1.227    38 C    1.170
    61   7 N    3.577 --    40 C    1.262    60 C    1.227    37 Ni   0.753
    62   1 H    0.998 --    38 C    0.972
    63   1 H    0.998 --    39 C    0.970
    64   1 H    0.998 --    43 C    0.970
    65   1 H    0.998 --    44 C    0.972
    66   1 H    0.996 --    47 C    0.964
    67   1 H    0.998 --    49 C    0.972
    68   1 H    0.998 --    50 C    0.972
    69   1 H    0.997 --    53 C    0.964
    70   1 H    0.998 --    55 C    0.972
    71   1 H    0.998 --    56 C    0.972
    72   1 H    0.996 --    59 C    0.964
    73   6 C    3.884 --    74 C    2.447     5 C    1.183    76 C    0.193
    74   6 C    3.930 --    73 C    2.447    75 C    1.330
    75   6 C    3.920 --    76 C    2.361    74 C    1.330    78 C    0.193
    76   6 C    3.921 --    75 C    2.361    77 C    1.330    73 C    0.193
    77   6 C    3.927 --    78 C    2.445    76 C    1.330
    78   6 C    3.885 --    77 C    2.445    89 C    1.186    75 C    0.193
    79   6 C    3.884 --    80 C    2.445   101 C    1.185    82 C    0.193
    80   6 C    3.927 --    79 C    2.445    81 C    1.330
    81   6 C    3.921 --    82 C    2.361    80 C    1.330    84 C    0.193
    82   6 C    3.920 --    81 C    2.361    83 C    1.329    79 C    0.193
    83   6 C    3.930 --    84 C    2.448    82 C    1.329
    84   6 C    3.884 --    83 C    2.448    41 C    1.183    81 C    0.193
    85  28 Ni   3.459 --   106 N    0.749    94 N    0.749   100 N    0.749
                           109 N    0.749
    86   6 C    3.953 --    87 C    1.644   108 C    1.171   110 H    0.972
    87   6 C    3.955 --    86 C    1.644    88 C    1.179   111 H    0.970
    88   6 C    3.916 --   109 N    1.265    89 C    1.249    87 C    1.179
    89   6 C    3.935 --    90 C    1.249    88 C    1.249    78 C    1.186
    90   6 C    3.916 --    94 N    1.264    89 C    1.249    91 C    1.179
    91   6 C    3.955 --    92 C    1.644    90 C    1.179   112 H    0.970
    92   6 C    3.953 --    91 C    1.644    93 C    1.171   113 H    0.972
    93   6 C    3.928 --    95 C    1.355    94 N    1.225    92 C    1.171
    94   7 N    3.568 --    90 C    1.264    93 C    1.225    85 Ni   0.749
    95   6 C    3.930 --    93 C    1.355    96 C    1.354   114 H    0.963
    96   6 C    3.928 --    95 C    1.354   100 N    1.225    97 C    1.171
    97   6 C    3.953 --    98 C    1.644    96 C    1.171   115 H    0.972
    98   6 C    3.955 --    97 C    1.644    99 C    1.179   116 H    0.970
    99   6 C    3.916 --   100 N    1.264   101 C    1.249    98 C    1.179
   100   7 N    3.568 --    99 C    1.264    96 C    1.225    85 Ni   0.749
   101   6 C    3.935 --   102 C    1.249    99 C    1.249    79 C    1.185
   102   6 C    3.916 --   106 N    1.264   101 C    1.249   103 C    1.179
   103   6 C    3.955 --   104 C    1.644   102 C    1.179   117 H    0.970
   104   6 C    3.953 --   103 C    1.644   105 C    1.171   118 H    0.972
   105   6 C    3.928 --   107 C    1.354   106 N    1.225   104 C    1.171
   106   7 N    3.568 --   102 C    1.264   105 C    1.225    85 Ni   0.749
   107   6 C    3.930 --   108 C    1.355   105 C    1.354   119 H    0.963
   108   6 C    3.928 --   107 C    1.355   109 N    1.225    86 C    1.171
   109   7 N    3.568 --    88 C    1.265   108 C    1.225    85 Ni   0.749
   110   1 H    0.998 --    86 C    0.972
   111   1 H    0.998 --    87 C    0.970
   112   1 H    0.998 --    91 C    0.970
   113   1 H    0.998 --    92 C    0.972
   114   1 H    0.996 --    95 C    0.963
   115   1 H    0.998 --    97 C    0.972
   116   1 H    0.998 --    98 C    0.970
   117   1 H    0.998 --   103 C    0.970
   118   1 H    0.998 --   104 C    0.972
   119   1 H    0.996 --   107 C    0.963
 ---------------------------------------------------------------------------

molecular dipole:
                 x           y           z       tot (Debye)
 q only:       -0.003      -0.001      -0.001
   full:       -0.003      -0.001      -0.002       0.009

 projected vibrational frequencies (cm⁻¹)
eigval :       -0.00    -0.00    -0.00    -0.00     0.00     0.00
eigval :       -5.44    -3.93    -2.47     2.18     3.26     4.11
eigval :        6.83    10.39    11.72    19.66    23.11    25.44
eigval :       26.11    27.11    31.73    40.78    49.19    64.36
eigval :       78.02    88.45    93.31    96.05    99.75    99.85
eigval :      101.42   107.43   118.45   120.31   120.32   123.08
eigval :      136.57   168.42   168.96   175.65   176.00   176.57
eigval :      180.07   183.32   187.16   206.36   226.41   226.51
eigval :      226.81   229.19   229.65   232.81   233.55   234.16
eigval :      237.36   237.44   244.49   245.91   245.98   246.48
eigval :      246.88   249.92   270.75   271.96   272.05   272.32
eigval :      272.83   273.05   292.15   297.26   297.96   307.01
eigval :      310.19   316.71   317.01   318.45   325.09   341.87
eigval :      342.04   346.56   346.70   349.41   350.01   356.25
eigval :      356.40   357.48   360.28   360.38   382.47   382.57
eigval :      383.75   384.09   386.55   387.96   388.71   388.97
eigval :      391.83   392.34   396.97   397.05   399.43   402.57
eigval :      402.62   413.51   422.41   422.41   435.30   435.63
eigval :      436.70   450.07   458.77   458.81   465.23   474.65
eigval :      493.77   501.00   504.71   504.79   507.22   614.51
eigval :      614.84   614.96   616.96   621.43   621.51   626.36
eigval :      626.47   630.35   635.56   639.47   639.53   644.83
eigval :      644.95   654.69   657.34   658.16   658.33   666.08
eigval :      666.17   670.85   670.90   671.20   671.25   706.13
eigval :      711.41   722.48   722.56   725.39   726.23   752.51
eigval :      759.16   759.19   762.71   765.93   766.79   772.15
eigval :      773.87   779.03   779.05   782.06   782.18   797.36
eigval :      797.39   798.09   798.13   800.76   800.81   805.68
eigval :      807.41   807.45   807.52   812.83   812.87   818.93
eigval :      820.28   820.83   820.85   828.41   828.44   835.87
eigval :      835.90   836.50   837.35   838.99   839.02   847.19
eigval :      847.20   847.29   847.30   847.33   847.87   848.41
eigval :      848.53   848.54   848.95   848.96   849.21   895.18
eigval :      896.85   958.61   959.80   987.87   988.06  1001.05
eigval :     1001.96  1002.06  1005.84  1017.33  1019.13  1022.84
eigval :     1022.87  1022.95  1027.80  1027.82  1028.32  1036.80
eigval :     1036.82  1036.94  1040.46  1040.48  1041.89  1067.78
eigval :     1067.80  1070.04  1070.26  1070.58  1070.72  1072.52
eigval :     1072.55  1073.15  1073.37  1073.59  1073.75  1081.07
eigval :     1087.55  1132.00  1141.17  1141.19  1141.26  1151.52
eigval :     1163.26  1167.42  1174.58  1174.58  1176.79  1180.96
eigval :     1211.59  1226.28  1226.32  1244.16  1244.34  1246.09
eigval :     1264.54  1269.17  1276.30  1282.10  1282.22  1303.36
eigval :     1304.90  1304.96  1305.10  1309.74  1316.74  1317.41
eigval :     1317.50  1317.79  1318.81  1328.81  1331.59  1331.67
eigval :     1332.28  1332.49  1340.85  1345.93  1346.57  1350.39
eigval :     1353.73  1356.44  1357.20  1359.13  1359.16  1432.02
eigval :     1433.57  1459.29  1466.79  1466.82  1467.84  1470.35
eigval :     1483.74  1485.13  1497.02  1499.40  1510.98  1514.35
eigval :     1515.80  1515.87  1516.35  1520.82  1525.53  1529.20
eigval :     1531.33  1531.44  1533.53  1536.02  1537.08  1545.14
eigval :     1545.20  1553.52  1554.97  1561.65  1561.72  1571.69
eigval :     1571.79  1582.82  1583.03  1584.66  1608.66  1615.48
eigval :     1615.61  2161.91  2165.95  2205.47  2205.53  2266.73
eigval :     2267.30  3095.68  3095.94  3096.06  3096.11  3096.34
eigval :     3096.40  3097.48  3097.50  3150.52  3150.54  3150.89
eigval :     3150.90  3154.84  3154.84  3155.10  3155.12  3155.12
eigval :     3155.37  3155.60  3155.77  3164.21  3164.25  3165.12
eigval :     3165.16  3168.53  3168.57  3168.96  3169.40  3169.46
eigval :     3169.61  3169.85  3169.99

   temp. (K)  partition function   enthalpy   heat capacity  entropy
                                   cal/mol     cal/K/mol   cal/K/mol   J/K/mol
 298.15  VIB  0.181E+39            42570.662    273.801    272.108
         ROT  0.116E+10              888.752      2.981     44.465
         INT  0.211E+48            43459.415    276.782    316.573
         TR   0.423E+29             1481.254      4.968     47.204
         TOT                       44940.6685   281.7503   363.7775  1522.0450

       T/K    H(0)-H(T)+PV         H(T)/Eh          T*S/Eh         G(T)/Eh
   ------------------------------------------------------------------------
    298.15    0.716175E-01    0.884935E+00    0.172842E+00    0.712093E+00
   ------------------------------------------------------------------------

         :::::::::::::::::::::::::::::::::::::::::::::::::::::
         ::                  THERMODYNAMIC                  ::
         :::::::::::::::::::::::::::::::::::::::::::::::::::::
         :: total free energy        -219.268981507795 Eh   ::
         ::.................................................::
         :: total energy             -219.981074122523 Eh   ::
         :: zero point energy           0.813317524526 Eh   ::
         :: G(RRHO) w/o ZPVE           -0.101224909798 Eh   ::
         :: G(RRHO) contrib.            0.712092614728 Eh   ::
         :::::::::::::::::::::::::::::::::::::::::::::::::::::

           -------------------------------------------------
          | TOTAL ENERGY             -219.981074122523 Eh   |
          | TOTAL ENTHALPY           -219.096139084103 Eh   |
          | TOTAL FREE ENERGY        -219.268981507795 Eh   |
          | GRADIENT NORM               0.000568801466 Eh/α |
          | HOMO-LUMO GAP               1.108300062300 eV   |
           -------------------------------------------------

 * finished run on 2021/11/19 at 11:49:59.468
