   * xtb version 6.4.1 (bd6e46d) compiled by 'conda@4901f00b25ba' on 2021-06-10
          program call               : /home/jeff/miniconda3/bin/xtb input_structure_1.xyz --gfn 2 --ohess normal --parallel 1 --etemp 300 --chrg 0 --uhf 0 -I det_control.in
          number of atoms            :                   119
          number of electrons        :                   407
          charge                     :                     0
          spin                       :                   0.5

   ID    Z sym.   atoms
    1   27 Co     1, 37, 85
    2    6 C      2-9, 11-15, 17-21, 23, 24, 38-45, 47-51, 53-57, 59, 60,
                  73-84, 86-93, 95-99, 101-105, 107, 108
    3    7 N      10, 16, 22, 25, 46, 52, 58, 61, 94, 100, 106, 109
    4    1 H      26-36, 62-72, 110-119

          :  Hamiltonian                  GFN2-xTB          :
 * total energy  :  -215.2446750 Eh     change        0.4895415E-07 Eh
 * total energy  :  -215.5883709 Eh     change       -0.3436960E+00 Eh
 * total energy  :  -215.7467427 Eh     change       -0.1583718E+00 Eh
 * total energy  :  -215.8417076 Eh     change       -0.9496492E-01 Eh
 * total energy  :  -215.9041517 Eh     change       -0.6244402E-01 Eh
 * total energy  :  -215.9492447 Eh     change       -0.4509308E-01 Eh
 * total energy  :  -215.9803272 Eh     change       -0.3108248E-01 Eh
 * total energy  :  -215.9995518 Eh     change       -0.1922459E-01 Eh
 * total energy  :  -216.0107324 Eh     change       -0.1118057E-01 Eh
 * total energy  :  -216.0172074 Eh     change       -0.6474974E-02 Eh
 * total energy  :  -216.5102897 Eh     change       -0.1624071E-03 Eh
 * total energy  :  -216.5103970 Eh     change       -0.1072390E-03 Eh
 * total energy  :  -216.5104812 Eh     change       -0.8422416E-04 Eh
 * total energy  :  -216.5105487 Eh     change       -0.6751525E-04 Eh
 * total energy  :  -216.5105918 Eh     change       -0.4312894E-04 Eh
 * total energy  :  -216.5106190 Eh     change       -0.2717941E-04 Eh
 * total energy  :  -216.5106363 Eh     change       -0.1726844E-04 Eh
 * total energy  :  -216.5106530 Eh     change       -0.1677753E-04 Eh
 * total energy  :  -216.5106569 Eh     change       -0.3829333E-05 Eh
   *** GEOMETRY OPTIMIZATION CONVERGED AFTER 68 ITERATIONS ***

 final structure:
================
119
 xtb: 6.4.1 (bd6e46d)
Co       11.94762735097952   -0.00612075385710   -0.01128369475340
C        14.44197794752782   -3.41575711368054    0.09353213042486
C        15.39433088203974   -2.45580184924373    0.09348848471186
C        14.70472115799881   -1.20301514962702    0.04059069876858
C        15.36974078103451    0.02417249845093   -0.00265468641867
C        14.68344782165211    1.23955345481024   -0.04448469981107
C        15.35110346069481    2.50452694317846   -0.08734022544762
C        14.38203040034548    3.44759543769103   -0.08375606849053
C        13.13391890085449    2.74833224391402   -0.04036130058877
N        13.32950518008157    1.39204907280026   -0.02481357846053
C        11.91493210222647    3.38959314975850   -0.00000328680702
C        10.70892645881735    2.72434978738733    0.03258375696136
C         9.44353901470989    3.39729032510507    0.07243213280234
C         8.49665187598554    2.43440204317685    0.06081152552080
C         9.19095850962767    1.18050597566627    0.01471217639583
N        10.54471172424153    1.36734765621123    0.00631708038438
C         8.54543612058695   -0.03623090023576   -0.03506150686738
C         9.21292540177165   -1.24149126516069   -0.07257095440352
C         8.54157473758280   -2.50764674172214   -0.12337566563771
C         9.50527869255256   -3.45373441782528   -0.11435622445775
C        10.75787030883772   -2.75836143029641   -0.05878777276044
N        10.56945481116446   -1.40437638762989   -0.04244676308037
C        11.97494035246185   -3.40190947028964   -0.00722708037348
C        13.18198664101830   -2.73888052921159    0.03971143809152
N        13.35376061950243   -1.37945506258346    0.01643927355043
H        14.55929034970061   -4.48144852782892    0.12446452279849
H        16.46132970229999   -2.56088748960482    0.12448838163801
H        16.41623104893453    2.62856261196119   -0.11321071588492
H        14.48073800237298    4.51541081883341   -0.10666637293166
H        11.90580508256311    4.46896341326924    0.00388486309278
H         9.32382502010662    4.46298616987697    0.10253255409899
H         7.42884935030777    2.53614328330163    0.07955993601153
H         7.46624025922140   -0.04570887203721   -0.04346385971114
H         7.47615714494865   -2.62833320906803   -0.15839399562469
H         9.40479176579037   -4.52151225414705   -0.14058671028290
H        11.98494689366257   -4.48127526244606   -0.00469837311862
Co       43.90313233042452    0.02629778472211   -0.00803017107327
C        41.41819544264317    3.36726814541388    0.71376738017648
C        40.46308271746938    2.42676791392327    0.53570024591070
C        41.14922650924715    1.20258804654134    0.25565416497775
C        40.48108030514808    0.00511151917873   -0.00796541368488
C        41.16413199157211   -1.18571828519367   -0.26313566961391
C        40.49304382981116   -2.42112715424938   -0.53006205868704
C        41.45945481057787   -3.35306241043401   -0.69124761637220
C        42.70944239717501   -2.67628993316503   -0.52338120831479
N        42.51761972464018   -1.34345229199781   -0.26896262467263
C        43.92660054224872   -3.31817845889257   -0.59605341513659
C        45.13446154169782   -2.67204486317672   -0.44899471074436
C        46.39810801660873   -3.34432587544029   -0.53188106009071
C        47.34760762688830   -2.39612709282890   -0.37936645700701
C        46.65661233704457   -1.15204692279984   -0.20265193410381
N        45.30233672683929   -1.33176117573105   -0.23793985448935
C        47.30521422124665    0.05318014438012   -0.04024311807172
C        46.64087566076800    1.24698222557746    0.14164876266915
C        47.31552782376452    2.50016182865429    0.31727680737287
C        46.35461370920485    3.43051899697405    0.50427174865430
C        45.10033347402484    2.73898535959788    0.43946247679554
N        45.28497652145033    1.40424832074263    0.20833623532027
C        43.88526530677054    3.36497758287493    0.61214530308960
C        42.67636976727725    2.70774967214567    0.53850580588756
N        42.50076840037965    1.37610697755529    0.26663043960990
H        41.30383653696910    4.40955877345958    0.93956466336892
H        39.39632660748664    2.52786929761459    0.58382840788652
H        39.42764449874419   -2.53520714214493   -0.57947823790417
H        41.35784661994369   -4.39968121852770   -0.90273880030155
H        43.93272318766726   -4.38147824391029   -0.78176780478420
H        46.51498862295939   -4.39916590277635   -0.68872337568940
H        48.41518138761986   -2.50183138681944   -0.38298617757095
H        48.38438014186598    0.06199971253905   -0.05241298748628
H        48.38107583408650    2.62327804993722    0.29835157438021
H        46.45803209982245    4.48507717900530    0.67205099139127
H        43.87832821949348    4.42569392870238    0.81206948799047
C        16.76671381022895    0.03583581181931   -0.00304370182460
C        17.98602829969063    0.04512726831058   -0.00538631434901
C        19.32259041329040    0.05190134036082   -0.00620132461060
C        20.54641015965420    0.05857190633036   -0.00815681001610
C        21.88284690057291    0.05826575385317   -0.00975512889089
C        23.10236720443102    0.05683258012071   -0.00937097560972
C        32.74820228503452   -0.01376736636949   -0.02307240841975
C        33.96767310197937   -0.01711810790958   -0.02341568942668
C        35.30421071271446   -0.01748240613431   -0.02330105802834
C        36.52798580815957   -0.01434599438612   -0.01982838048938
C        37.86465235867627   -0.00902253086132   -0.01680070754504
C        39.08395506805918   -0.00277588766065   -0.01215466313122
Co       27.92528323378284    0.02256017492783   -0.00710017165174
C        25.43249413530339   -3.36845938655258    0.39169775332853
C        24.47828778953648   -2.41664134553980    0.28163449985223
C        25.16644848007908   -1.17074310873349    0.13375469935938
C        24.49873112501508    0.04786627566006   -0.00781769205876
C        25.18423355640242    1.25684175201331   -0.14547497388512
C        24.51451368528802    2.51341215472203   -0.28737901941461
C        25.48266109542292    3.45200600659595   -0.38912863494634
C        26.73133974774325    2.75768326600765   -0.30906150515046
N        26.53760316092747    1.40914048286395   -0.16005862123333
C        27.95015097700798    3.39581554259021   -0.37605319856822
C        29.15934879492946    2.74018940435666   -0.30400948298368
C        30.41817287815706    3.41664065574486   -0.37783170135526
C        31.37232991727199    2.46360739735670   -0.27848135545519
C        30.68410607254683    1.21614887202216   -0.14459993261094
N        29.33312138784012    1.38839111094286   -0.15973653457418
C        31.35172479334138   -0.00419910673929   -0.01923417929720
C        30.66627391950158   -1.21373068957725    0.11316142976626
C        31.33598820735475   -2.47117242933009    0.24738482726339
C        30.36788116229959   -3.40841366542303    0.36108687823535
C        29.11922869633520   -2.71265973214695    0.29395860440587
N        29.31293195307170   -1.36459769016515    0.14068286016273
C        27.90047217413603   -3.34902256557068    0.37690606547298
C        26.69126974671287   -2.69301165459376    0.30865411653568
N        26.51741128182637   -1.34265726177438    0.15144835092823
H        25.31724768781353   -4.42749744632890    0.51649056912625
H        23.41109910339484   -2.52290314291987    0.29649219733574
H        23.44896130624775    2.63519461297940   -0.30349511116403
H        25.38314801544024    4.51341128926303   -0.50730592846766
H        27.95816266470398    4.46896237919810   -0.49260691996403
H        30.53350112775646    4.47697043655550   -0.49104231449753
H        32.43952598662997    2.57001485101620   -0.29228275888550
H        32.40150943004391   -2.59419606678879    0.25199406372981
H        30.46738006844537   -4.46981183965866    0.47929175453566
H        27.89249914989547   -4.42137820078498    0.50053530980803

          :  Hamiltonian                  GFN2-xTB          :
         :: gradient norm              0.000313561016 Eh/a0 ::
         :: HOMO-LUMO gap              0.000039996947 eV    ::
         :: SCC energy              -220.511688301324 Eh    ::
         :: -> dispersion             -0.186886744591 Eh    ::
         :: repulsion energy           4.003557784514 Eh    ::

    * Orbital Energies and Occupations

         #    Occupation            Energy/Eh            Energy/eV
      -------------------------------------------------------------
         1        2.0000           -0.6698798             -18.2284
       ...           ...                  ...                  ...
       192        2.0000           -0.3620236              -9.8512
       193        1.9993           -0.3534593              -9.6181
       194        1.8910           -0.3486395              -9.4870
       195        1.8824           -0.3485621              -9.4849
       196        1.8823           -0.3485620              -9.4849
       197        1.8712           -0.3484696              -9.4823
       198        1.8613           -0.3483930              -9.4803
       199        1.8555           -0.3483510              -9.4791
       200        1.8232           -0.3481403              -9.4734
       201        1.8168           -0.3481022              -9.4723
       202        1.8167           -0.3481016              -9.4723
       203        1.4380           -0.3467837              -9.4365
       204        1.4315           -0.3467679              -9.4360 (HOMO)
       205        1.4309           -0.3467665              -9.4360 (LUMO)
       206                         -0.3114870              -8.4760
       207                         -0.3023909              -8.2285
       208                         -0.2973224              -8.0906
       209                         -0.2968202              -8.0769
       210                         -0.2968170              -8.0768
       211                         -0.2952560              -8.0343
       212                         -0.2718333              -7.3970
       213                         -0.2648584              -7.2072
       214                         -0.2637005              -7.1757
       215                         -0.2636833              -7.1752
       ...                                ...                  ...
       395                          1.7174978              46.7355
      -------------------------------------------------------------
                  HL-Gap            0.0000014 Eh            0.0000 eV

     #   Z          covCN         q      C6AA      α(0)
     1  27 Co       3.055     0.103   140.892    24.319
     2   6 C        3.025    -0.053    29.289     8.877
     3   6 C        3.022    -0.051    29.252     8.872
     4   6 C        3.196     0.073    25.875     8.293
     5   6 C        2.956     0.017    27.631     8.622
     6   6 C        3.196     0.073    25.874     8.293
     7   6 C        3.022    -0.051    29.252     8.872
     8   6 C        3.025    -0.053    29.289     8.877
     9   6 C        3.181     0.072    25.984     8.321
    10   7 N        2.630    -0.131    23.858     7.254
    11   6 C        2.905    -0.050    29.240     8.866
    12   6 C        3.177     0.073    25.980     8.323
    13   6 C        3.021    -0.052    29.269     8.874
    14   6 C        3.022    -0.052    29.271     8.875
    15   6 C        3.177     0.073    25.975     8.322
    16   7 N        2.631    -0.130    23.822     7.249
    17   6 C        2.905    -0.052    29.283     8.873
    18   6 C        3.177     0.073    25.974     8.322
    19   6 C        3.022    -0.052    29.271     8.875
    20   6 C        3.021    -0.052    29.269     8.874
    21   6 C        3.177     0.073    25.980     8.323
    22   7 N        2.631    -0.130    23.822     7.249
    23   6 C        2.905    -0.050    29.240     8.866
    24   6 C        3.181     0.072    25.984     8.321
    25   7 N        2.630    -0.131    23.857     7.254
    26   1 H        0.926     0.034     2.527     2.486
    27   1 H        0.926     0.036     2.496     2.471
    28   1 H        0.926     0.036     2.496     2.471
    29   1 H        0.926     0.034     2.527     2.486
    30   1 H        0.926     0.050     2.322     2.383
    31   1 H        0.926     0.035     2.521     2.483
    32   1 H        0.926     0.035     2.522     2.483
    33   1 H        0.926     0.049     2.330     2.387
    34   1 H        0.926     0.035     2.522     2.483
    35   1 H        0.926     0.035     2.521     2.483
    36   1 H        0.926     0.050     2.322     2.383
    37  27 Co       3.055     0.103   140.892    24.319
    38   6 C        3.025    -0.053    29.289     8.877
    39   6 C        3.022    -0.051    29.252     8.872
    40   6 C        3.195     0.073    25.875     8.293
    41   6 C        2.956     0.017    27.631     8.622
    42   6 C        3.196     0.073    25.874     8.293
    43   6 C        3.022    -0.051    29.252     8.872
    44   6 C        3.025    -0.053    29.289     8.877
    45   6 C        3.181     0.072    25.984     8.321
    46   7 N        2.630    -0.131    23.857     7.254
    47   6 C        2.905    -0.050    29.240     8.867
    48   6 C        3.177     0.073    25.980     8.323
    49   6 C        3.021    -0.052    29.269     8.874
    50   6 C        3.022    -0.052    29.271     8.875
    51   6 C        3.177     0.073    25.975     8.322
    52   7 N        2.631    -0.130    23.822     7.249
    53   6 C        2.905    -0.052    29.284     8.873
    54   6 C        3.177     0.073    25.975     8.322
    55   6 C        3.022    -0.052    29.271     8.875
    56   6 C        3.021    -0.052    29.269     8.874
    57   6 C        3.177     0.073    25.980     8.323
    58   7 N        2.631    -0.130    23.822     7.249
    59   6 C        2.905    -0.050    29.240     8.867
    60   6 C        3.181     0.072    25.984     8.321
    61   7 N        2.630    -0.131    23.857     7.254
    62   1 H        0.926     0.034     2.527     2.486
    63   1 H        0.926     0.036     2.496     2.471
    64   1 H        0.926     0.036     2.496     2.471
    65   1 H        0.926     0.034     2.527     2.486
    66   1 H        0.926     0.050     2.322     2.383
    67   1 H        0.926     0.035     2.521     2.483
    68   1 H        0.926     0.035     2.522     2.483
    69   1 H        0.926     0.049     2.330     2.387
    70   1 H        0.926     0.035     2.522     2.483
    71   1 H        0.926     0.035     2.521     2.483
    72   1 H        0.926     0.050     2.322     2.383
    73   6 C        1.993    -0.020    31.575     9.075
    74   6 C        1.963    -0.010    31.345     9.041
    75   6 C        1.965    -0.002    31.133     9.011
    76   6 C        1.965    -0.003    31.137     9.011
    77   6 C        1.963    -0.010    31.341     9.041
    78   6 C        1.993    -0.020    31.579     9.075
    79   6 C        1.993    -0.020    31.577     9.075
    80   6 C        1.963    -0.010    31.340     9.041
    81   6 C        1.965    -0.002    31.136     9.011
    82   6 C        1.965    -0.002    31.131     9.010
    83   6 C        1.963    -0.010    31.345     9.041
    84   6 C        1.993    -0.020    31.573     9.074
    85  27 Co       3.048     0.102   140.900    24.320
    86   6 C        3.025    -0.053    29.287     8.877
    87   6 C        3.023    -0.052    29.255     8.872
    88   6 C        3.197     0.073    25.856     8.289
    89   6 C        2.957     0.017    27.631     8.622
    90   6 C        3.197     0.073    25.856     8.289
    91   6 C        3.023    -0.052    29.253     8.872
    92   6 C        3.025    -0.053    29.287     8.877
    93   6 C        3.183     0.072    25.976     8.318
    94   7 N        2.629    -0.132    23.875     7.257
    95   6 C        2.905    -0.048    29.190     8.859
    96   6 C        3.183     0.072    25.976     8.318
    97   6 C        3.025    -0.053    29.287     8.877
    98   6 C        3.023    -0.052    29.255     8.872
    99   6 C        3.197     0.073    25.857     8.289
   100   7 N        2.629    -0.132    23.874     7.257
   101   6 C        2.957     0.017    27.631     8.622
   102   6 C        3.197     0.073    25.857     8.289
   103   6 C        3.023    -0.052    29.253     8.872
   104   6 C        3.025    -0.053    29.287     8.877
   105   6 C        3.183     0.072    25.976     8.318
   106   7 N        2.629    -0.132    23.875     7.257
   107   6 C        2.905    -0.048    29.190     8.859
   108   6 C        3.183     0.072    25.976     8.318
   109   7 N        2.629    -0.132    23.874     7.257
   110   1 H        0.926     0.034     2.529     2.487
   111   1 H        0.926     0.036     2.500     2.472
   112   1 H        0.926     0.036     2.500     2.473
   113   1 H        0.926     0.034     2.530     2.487
   114   1 H        0.926     0.050     2.318     2.381
   115   1 H        0.926     0.034     2.529     2.487
   116   1 H        0.926     0.036     2.500     2.472
   117   1 H        0.926     0.036     2.500     2.473
   118   1 H        0.926     0.034     2.530     2.487
   119   1 H        0.926     0.050     2.318     2.381

Wiberg/Mayer (AO) data.
largest (>0.10) Wiberg bond orders for each atom

     #   Z sym  total        # sym  WBO       # sym  WBO       # sym  WBO
 ---------------------------------------------------------------------------
     1  27 Co   3.327 --    16 N    0.724    22 N    0.724    25 N    0.722
                            10 N    0.722
     2   6 C    3.952 --     3 C    1.641    24 C    1.174    26 H    0.972
     3   6 C    3.956 --     2 C    1.641     4 C    1.183    27 H    0.970
     4   6 C    3.915 --    25 N    1.261     5 C    1.256     3 C    1.183
     5   6 C    3.947 --     6 C    1.256     4 C    1.256    73 C    1.181
     6   6 C    3.915 --    10 N    1.261     5 C    1.256     7 C    1.183
     7   6 C    3.956 --     8 C    1.641     6 C    1.183    28 H    0.970
     8   6 C    3.952 --     7 C    1.641     9 C    1.174    29 H    0.972
     9   6 C    3.929 --    11 C    1.359    10 N    1.227     8 C    1.174
    10   7 N    3.514 --     6 C    1.261     9 C    1.227     1 Co   0.722
    11   6 C    3.938 --     9 C    1.359    12 C    1.359    30 H    0.963
    12   6 C    3.934 --    11 C    1.359    16 N    1.239    13 C    1.166
    13   6 C    3.957 --    14 C    1.657    12 C    1.166    31 H    0.972
    14   6 C    3.954 --    13 C    1.657    15 C    1.165    32 H    0.972
    15   6 C    3.936 --    17 C    1.358    16 N    1.242    14 C    1.165
    16   7 N    3.509 --    15 C    1.242    12 C    1.239     1 Co   0.724
    17   6 C    3.935 --    18 C    1.358    15 C    1.358    33 H    0.964
    18   6 C    3.936 --    17 C    1.358    22 N    1.242    19 C    1.165
    19   6 C    3.954 --    20 C    1.657    18 C    1.165    34 H    0.972
    20   6 C    3.957 --    19 C    1.657    21 C    1.166    35 H    0.972
    21   6 C    3.934 --    23 C    1.359    22 N    1.239    20 C    1.166
    22   7 N    3.509 --    18 C    1.242    21 C    1.239     1 Co   0.724
    23   6 C    3.938 --    24 C    1.359    21 C    1.359    36 H    0.963
    24   6 C    3.929 --    23 C    1.359    25 N    1.227     2 C    1.174
    25   7 N    3.514 --     4 C    1.261    24 C    1.227     1 Co   0.722
    26   1 H    0.998 --     2 C    0.972
    27   1 H    0.998 --     3 C    0.970
    28   1 H    0.998 --     7 C    0.970
    29   1 H    0.998 --     8 C    0.972
    30   1 H    0.996 --    11 C    0.963
    31   1 H    0.998 --    13 C    0.972
    32   1 H    0.998 --    14 C    0.972
    33   1 H    0.996 --    17 C    0.964
    34   1 H    0.998 --    19 C    0.972
    35   1 H    0.998 --    20 C    0.972
    36   1 H    0.996 --    23 C    0.963
    37  27 Co   3.327 --    52 N    0.724    58 N    0.724    46 N    0.722
                            61 N    0.722
    38   6 C    3.952 --    39 C    1.642    60 C    1.174    62 H    0.972
    39   6 C    3.956 --    38 C    1.642    40 C    1.183    63 H    0.970
    40   6 C    3.915 --    61 N    1.261    41 C    1.256    39 C    1.183
    41   6 C    3.948 --    42 C    1.256    40 C    1.256    84 C    1.181
    42   6 C    3.915 --    46 N    1.261    41 C    1.256    43 C    1.183
    43   6 C    3.956 --    44 C    1.642    42 C    1.183    64 H    0.970
    44   6 C    3.952 --    43 C    1.642    45 C    1.174    65 H    0.972
    45   6 C    3.929 --    47 C    1.359    46 N    1.227    44 C    1.174
    46   7 N    3.514 --    42 C    1.261    45 C    1.227    37 Co   0.722
    47   6 C    3.938 --    45 C    1.359    48 C    1.359    66 H    0.963
    48   6 C    3.934 --    47 C    1.359    52 N    1.239    49 C    1.166
    49   6 C    3.957 --    50 C    1.657    48 C    1.166    67 H    0.972
    50   6 C    3.954 --    49 C    1.657    51 C    1.165    68 H    0.972
    51   6 C    3.936 --    53 C    1.358    52 N    1.242    50 C    1.165
    52   7 N    3.509 --    51 C    1.242    48 C    1.239    37 Co   0.724
    53   6 C    3.935 --    54 C    1.358    51 C    1.358    69 H    0.964
    54   6 C    3.936 --    53 C    1.358    58 N    1.242    55 C    1.165
    55   6 C    3.954 --    56 C    1.657    54 C    1.165    70 H    0.972
    56   6 C    3.957 --    55 C    1.657    57 C    1.166    71 H    0.972
    57   6 C    3.934 --    59 C    1.359    58 N    1.239    56 C    1.166
    58   7 N    3.509 --    54 C    1.242    57 C    1.239    37 Co   0.724
    59   6 C    3.938 --    60 C    1.359    57 C    1.359    72 H    0.963
    60   6 C    3.929 --    59 C    1.359    61 N    1.227    38 C    1.174
    61   7 N    3.514 --    40 C    1.261    60 C    1.227    37 Co   0.722
    62   1 H    0.998 --    38 C    0.972
    63   1 H    0.998 --    39 C    0.970
    64   1 H    0.998 --    43 C    0.970
    65   1 H    0.998 --    44 C    0.972
    66   1 H    0.996 --    47 C    0.963
    67   1 H    0.998 --    49 C    0.972
    68   1 H    0.998 --    50 C    0.972
    69   1 H    0.996 --    53 C    0.964
    70   1 H    0.998 --    55 C    0.972
    71   1 H    0.998 --    56 C    0.972
    72   1 H    0.996 --    59 C    0.963
    73   6 C    3.884 --    74 C    2.449     5 C    1.181    76 C    0.194
    74   6 C    3.931 --    73 C    2.449    75 C    1.329
    75   6 C    3.920 --    76 C    2.362    74 C    1.329    78 C    0.194
    76   6 C    3.922 --    75 C    2.362    77 C    1.329    73 C    0.194
    77   6 C    3.928 --    78 C    2.447    76 C    1.329
    78   6 C    3.884 --    77 C    2.447    89 C    1.184    75 C    0.194
    79   6 C    3.884 --    80 C    2.447   101 C    1.183    82 C    0.193
    80   6 C    3.928 --    79 C    2.447    81 C    1.329
    81   6 C    3.921 --    82 C    2.363    80 C    1.329    84 C    0.194
    82   6 C    3.920 --    81 C    2.363    83 C    1.328    79 C    0.193
    83   6 C    3.931 --    84 C    2.450    82 C    1.328
    84   6 C    3.884 --    83 C    2.450    41 C    1.181    81 C    0.194
    85  27 Co   3.303 --   100 N    0.718   109 N    0.718   106 N    0.718
                            94 N    0.718
    86   6 C    3.953 --    87 C    1.641   108 C    1.175   110 H    0.972
    87   6 C    3.955 --    86 C    1.641    88 C    1.184   111 H    0.970
    88   6 C    3.915 --   109 N    1.264    89 C    1.254    87 C    1.184
    89   6 C    3.938 --    90 C    1.254    88 C    1.254    78 C    1.184
    90   6 C    3.915 --    94 N    1.264    89 C    1.254    91 C    1.184
    91   6 C    3.955 --    92 C    1.641    90 C    1.184   112 H    0.970
    92   6 C    3.953 --    91 C    1.641    93 C    1.175   113 H    0.972
    93   6 C    3.928 --    95 C    1.359    94 N    1.226    92 C    1.175
    94   7 N    3.506 --    90 C    1.264    93 C    1.226    85 Co   0.718
    95   6 C    3.933 --    96 C    1.359    93 C    1.359   114 H    0.963
    96   6 C    3.928 --    95 C    1.359   100 N    1.226    97 C    1.175
    97   6 C    3.953 --    98 C    1.641    96 C    1.175   115 H    0.972
    98   6 C    3.955 --    97 C    1.641    99 C    1.184   116 H    0.970
    99   6 C    3.915 --   100 N    1.264   101 C    1.254    98 C    1.184
   100   7 N    3.506 --    99 C    1.264    96 C    1.226    85 Co   0.718
   101   6 C    3.938 --   102 C    1.254    99 C    1.254    79 C    1.183
   102   6 C    3.915 --   106 N    1.264   101 C    1.254   103 C    1.184
   103   6 C    3.955 --   104 C    1.641   102 C    1.184   117 H    0.970
   104   6 C    3.953 --   103 C    1.641   105 C    1.175   118 H    0.972
   105   6 C    3.928 --   107 C    1.359   106 N    1.226   104 C    1.175
   106   7 N    3.506 --   102 C    1.264   105 C    1.226    85 Co   0.718
   107   6 C    3.933 --   108 C    1.359   105 C    1.359   119 H    0.963
   108   6 C    3.928 --   107 C    1.359   109 N    1.226    86 C    1.175
   109   7 N    3.506 --    88 C    1.264   108 C    1.226    85 Co   0.718
   110   1 H    0.998 --    86 C    0.972
   111   1 H    0.998 --    87 C    0.970
   112   1 H    0.998 --    91 C    0.970
   113   1 H    0.998 --    92 C    0.972
   114   1 H    0.996 --    95 C    0.963
   115   1 H    0.998 --    97 C    0.972
   116   1 H    0.998 --    98 C    0.970
   117   1 H    0.998 --   103 C    0.970
   118   1 H    0.998 --   104 C    0.972
   119   1 H    0.996 --   107 C    0.963
 ---------------------------------------------------------------------------

molecular dipole:
                 x           y           z       tot (Debye)
 q only:        0.001      -0.001       0.002
   full:        0.001      -0.001       0.002       0.007

 projected vibrational frequencies (cm⁻¹)
eigval :       -0.00    -0.00    -0.00    -0.00     0.00     0.00
eigval :      -13.17   -12.26    -6.09     2.36     2.73     2.80
eigval :        5.87     7.31     8.93    19.57    20.12    23.34
eigval :       23.45    27.26    29.85    36.62    49.42    63.30
eigval :       76.39    88.34    93.54    96.54   100.84   100.90
eigval :      102.17   106.90   117.23   119.22   119.25   122.15
eigval :      135.88   167.96   170.59   179.76   182.51   184.64
eigval :      189.22   189.62   190.75   207.88   226.21   226.44
eigval :      226.54   228.92   229.00   232.92   236.95   239.84
eigval :      243.10   243.14   247.82   248.79   249.04   249.67
eigval :      251.29   251.77   263.69   265.17   265.67   265.76
eigval :      266.78   266.87   297.49   297.69   301.02   308.83
eigval :      313.71   318.12   318.40   319.57   325.62   342.44
eigval :      342.85   346.07   346.15   349.14   349.65   358.70
eigval :      358.77   358.85   361.27   362.57   382.00   382.02
eigval :      383.36   383.74   387.73   387.98   388.85   389.04
eigval :      390.99   391.99   394.57   397.06   399.26   402.86
eigval :      403.12   411.62   422.20   422.28   437.09   437.47
eigval :      438.47   451.95   459.76   459.76   465.86   473.12
eigval :      492.43   502.04   505.42   505.50   507.60   616.99
eigval :      618.71   618.79   620.33   623.25   623.26   625.79
eigval :      625.81   631.49   634.82   638.49   638.50   643.01
eigval :      643.07   652.54   657.79   658.40   658.44   666.05
eigval :      666.07   669.73   672.63   672.72   672.79   705.51
eigval :      711.12   725.38   725.89   725.98   726.79   755.62
eigval :      760.48   760.78   763.13   766.70   768.71   774.10
eigval :      774.94   781.03   781.09   783.02   783.11   799.85
eigval :      799.92   800.09   800.21   800.40   800.77   804.41
eigval :      806.34   806.45   806.51   811.19   811.29   817.24
eigval :      818.68   819.22   819.28   826.72   826.82   834.62
eigval :      834.71   834.98   836.28   837.78   837.80   844.67
eigval :      844.70   845.27   845.63   845.70   845.88   845.90
eigval :      846.08   846.10   846.59   846.63   846.89   897.63
eigval :      898.68   960.42   961.63   989.68   990.17  1001.27
eigval :     1002.90  1002.93  1005.84  1017.04  1018.53  1022.35
eigval :     1022.38  1022.39  1027.04  1027.13  1027.13  1035.88
eigval :     1036.01  1036.35  1040.36  1040.43  1041.65  1066.97
eigval :     1066.98  1069.49  1069.80  1070.30  1070.32  1072.00
eigval :     1072.04  1072.63  1073.33  1073.35  1073.56  1079.65
eigval :     1085.62  1131.26  1140.47  1140.64  1140.70  1150.06
eigval :     1163.74  1166.04  1174.50  1174.52  1175.02  1179.31
eigval :     1209.58  1225.23  1225.29  1244.23  1245.07  1248.25
eigval :     1261.70  1265.67  1272.73  1281.87  1281.93  1305.47
eigval :     1306.30  1306.40  1306.45  1310.78  1317.53  1319.91
eigval :     1319.94  1319.96  1320.35  1328.58  1330.73  1330.91
eigval :     1331.37  1331.50  1336.41  1340.10  1342.25  1348.15
eigval :     1352.49  1354.74  1354.75  1356.37  1357.64  1432.47
eigval :     1433.40  1462.70  1469.91  1469.94  1471.08  1473.26
eigval :     1485.66  1487.16  1498.25  1501.29  1504.87  1508.38
eigval :     1508.40  1515.80  1516.75  1520.66  1528.92  1531.87
eigval :     1536.41  1537.03  1537.08  1537.56  1538.05  1548.14
eigval :     1548.14  1555.65  1556.03  1562.43  1562.54  1578.27
eigval :     1578.27  1589.17  1589.48  1591.38  1613.95  1620.01
eigval :     1620.02  2163.27  2167.58  2206.47  2206.65  2267.86
eigval :     2268.62  3091.53  3091.78  3092.18  3092.35  3092.51
eigval :     3092.82  3094.33  3094.99  3149.30  3149.31  3149.72
eigval :     3149.72  3154.29  3154.35  3154.39  3154.56  3154.61
eigval :     3154.69  3154.88  3155.04  3162.41  3162.47  3162.54
eigval :     3162.65  3168.41  3168.43  3168.56  3168.73  3168.87
eigval :     3168.98  3169.12  3169.41

   temp. (K)  partition function   enthalpy   heat capacity  entropy
                                   cal/mol     cal/K/mol   cal/K/mol   J/K/mol
 298.15  VIB  0.480E+38            42511.650    273.691    270.191
         ROT  0.116E+10              888.752      2.981     44.460
         INT  0.558E+47            43400.402    276.671    314.651
         TR   0.423E+29             1481.254      4.968     47.206
         TOT                       44881.6563   281.6396   361.8571  1514.0099

       T/K    H(0)-H(T)+PV         H(T)/Eh          T*S/Eh         G(T)/Eh
   ------------------------------------------------------------------------
    298.15    0.715235E-01    0.884985E+00    0.171930E+00    0.713055E+00
   ------------------------------------------------------------------------

         :::::::::::::::::::::::::::::::::::::::::::::::::::::
         ::                  THERMODYNAMIC                  ::
         :::::::::::::::::::::::::::::::::::::::::::::::::::::
         :: total free energy        -215.797602050048 Eh   ::
         ::.................................................::
         :: total energy             -216.510656875528 Eh   ::
         :: zero point energy           0.813461316616 Eh   ::
         :: G(RRHO) w/o ZPVE           -0.100406491135 Eh   ::
         :: G(RRHO) contrib.            0.713054825481 Eh   ::
         :::::::::::::::::::::::::::::::::::::::::::::::::::::

           -------------------------------------------------
          | TOTAL ENERGY             -216.510656875528 Eh   |
          | TOTAL ENTHALPY           -215.625672086902 Eh   |
          | TOTAL FREE ENERGY        -215.797602050048 Eh   |
          | GRADIENT NORM               0.000313587584 Eh/α |
          | HOMO-LUMO GAP               0.000037605712 eV   |
           -------------------------------------------------

 * finished run on 2021/11/19 at 11:56:54.713
