   * xtb version 6.4.1 (bd6e46d) compiled by 'conda@4901f00b25ba' on 2021-06-10
          program call               : /home/jeff/miniconda3/bin/xtb input_structure_1.xyz --gfn 2 --ohess normal --parallel 1 --etemp 300 --chrg 0 --uhf 0 -I det_control.in
          number of atoms            :                   122
          number of electrons        :                   386
          charge                     :                     0
          spin                       :                   0.0

   ID    Z sym.   atoms
    1    6 C      1-8, 10-14, 16-20, 22, 23, 38-45, 47-51, 53-57, 59, 60,
                  75-94, 96-100, 102-106, 108, 109
    2    7 N      9, 15, 21, 24, 46, 52, 58, 61, 95, 101, 107, 110
    3    1 H      25-37, 62-74, 111-122

          :  Hamiltonian                  GFN2-xTB          :
 * total energy  :  -207.8586139 Eh     change       -0.1522534E-07 Eh
 * total energy  :  -208.0112499 Eh     change       -0.1526360E+00 Eh
 * total energy  :  -208.0825867 Eh     change       -0.7133683E-01 Eh
 * total energy  :  -208.1152760 Eh     change       -0.3268928E-01 Eh
 * total energy  :  -208.1431814 Eh     change       -0.2790539E-01 Eh
 * total energy  :  -208.1666516 Eh     change       -0.2347026E-01 Eh
 * total energy  :  -208.1862475 Eh     change       -0.1959581E-01 Eh
 * total energy  :  -208.2011595 Eh     change       -0.1491201E-01 Eh
 * total energy  :  -208.2133530 Eh     change       -0.1219355E-01 Eh
 * total energy  :  -208.2221285 Eh     change       -0.8775516E-02 Eh
 * total energy  :  -208.2765918 Eh     change       -0.1181960E-04 Eh
 * total energy  :  -208.2766004 Eh     change       -0.8604815E-05 Eh
 * total energy  :  -208.2766083 Eh     change       -0.7908419E-05 Eh
 * total energy  :  -208.2766175 Eh     change       -0.9182126E-05 Eh
 * total energy  :  -208.2766274 Eh     change       -0.9867393E-05 Eh
 * total energy  :  -208.2766352 Eh     change       -0.7798708E-05 Eh
 * total energy  :  -208.2766249 Eh     change        0.1030419E-04 Eh
 * total energy  :  -208.2766393 Eh     change       -0.1441041E-04 Eh
 * total energy  :  -208.2766405 Eh     change       -0.1268214E-05 Eh
   *** GEOMETRY OPTIMIZATION CONVERGED AFTER 124 ITERATIONS ***

 final structure:
================
122
 xtb: 6.4.1 (bd6e46d)
C       -12.53481504684281    2.22972419753235    2.79865636353612
C       -11.83479483417817    1.43715654436190    1.96399473532945
C       -12.79697189099071    0.91435313210121    1.01009096447524
C       -12.44619349396436    0.04238311376907   -0.03961970592195
C       -13.35367014922634   -0.47343502777364   -0.97828066956827
C       -13.06977780297927   -1.35232205734106   -2.05788374509745
C       -14.24479284687831   -1.59496154366771   -2.70885086494700
C       -15.27156688848373   -0.86934204563961   -2.04120147208024
N       -14.68402974431512   -0.20942590039016   -1.00494419768545
C       -16.61612006528417   -0.83888092863386   -2.38034123194954
C       -17.63069492247037   -0.13755854485020   -1.74345055683325
C       -19.01587610416249   -0.18122309355169   -2.18988224290049
C       -19.70737675980297    0.60823523785641   -1.34743961505578
C       -18.73967172247120    1.12736399662176   -0.39324763704162
N       -17.50276008271902    0.65834101258243   -0.66181151329384
C       -19.07706528850127    1.99046357025937    0.64166918337621
C       -18.19293585126336    2.51388405794606    1.57233081166357
C       -18.47573760765626    3.40233015185911    2.64915125935965
C       -17.30314539429413    3.64940409904271    3.29943553678169
C       -16.27367203320204    2.91839609456033    2.63755639563782
N       -16.85881968849442    2.25306087702047    1.60722062554560
C       -14.92925679531438    2.88692282727103    2.97620653043830
C       -13.91487312444909    2.18145168301526    2.34581824409463
N       -14.03314580967520    1.37603992943337    1.26342204153706
H       -12.18718487190329    2.79955690456034    3.63884171994710
H       -10.78626987280120    1.21019686490989    1.96366356491356
H       -12.09656490922575   -1.73791631841092   -2.29224132568479
H       -14.39679066102908   -2.21571532682868   -3.57029368819732
H       -15.15418057924626    0.39498469524815   -0.34103000031294
H       -16.90377364420267   -1.42948655159820   -3.23918034418776
H       -19.36807495272612   -0.74651247329111   -3.03149036224886
H       -20.75565751513527    0.83813776902660   -1.34011957688769
H       -20.11460707103975    2.27923098610661    0.72797854221439
H       -19.44794284796044    3.79111555195920    2.88229898260600
H       -17.15086484188783    4.27586516581983    4.15694505939480
H       -16.39194893334428    1.64452240334185    0.94562222915971
H       -14.63869064409137    3.48165397910066    3.83132396302868
C        14.03983933527352   -2.81849721185150    1.39339068078378
C        12.91989752639756   -2.20490379996590    0.96397525955694
C        13.32351528286641   -0.86541961782065    0.57509480747457
C        12.42594161152264    0.09161876814798    0.06176646389276
C        12.79161356890210    1.38845847664190   -0.33559994327167
C        11.94349811243710    2.39698372602029   -0.86652398218630
C        12.71470820652797    3.49805986301056   -1.10400823470172
C        14.04984632452914    3.18628389039101   -0.72171873370015
N        14.04501190395682    1.90231576760024   -0.26741458280636
C        15.14753314451572    4.03134436297937   -0.79109797438918
C        16.45368336065894    3.74923652722738   -0.41569062675232
C        17.53083214203179    4.72260073725677   -0.52570062685062
C        18.64022675441808    4.10799561687196   -0.07548811397600
C        18.23219887016052    2.76454177493729    0.30541941059034
N        16.91221332400833    2.58484256958003    0.08810046277485
C        19.10970873846722    1.81735463947718    0.81792627356149
C        18.77035194811508    0.52639217536989    1.19230030661487
C        19.62180137297601   -0.48735606668393    1.71771800646122
C        18.85743204963519   -1.59426447032617    1.94010217658704
C        17.51932813504199   -1.28572899449937    1.55744476944384
N        17.51930716807073   -0.00094143560070    1.11463370993998
C        16.42145591702593   -2.13049703636251    1.62527996287368
C        15.11251028323446   -1.84645053438732    1.26499130913410
N        14.64022885541485   -0.67931791806648    0.76560127907569
H        14.16242922494827   -3.81794479779983    1.76428547465865
H        11.91857632208878   -2.58507054426632    0.90156669329177
H        10.89080328736130    2.28260014742917   -1.03787548300026
H        12.39837890864938    4.44154530715965   -1.50434875960885
H        14.84828212668427    1.39046702951586    0.07882968193854
H        14.96062707213871    5.02317197165552   -1.17906733709876
H        17.41401276801348    5.72230343548590   -0.89833051551761
H        19.64059447839608    4.48819898534453    0.00517932915795
H        20.14324277199625    2.11030485718397    0.93325158587661
H        20.67325836877567   -0.37143664582869    1.89573260095421
H        19.17640749388952   -2.54064082936156    2.33198771951141
H        16.71727616309560    0.51376458061641    0.77143280521514
H        16.60798370949077   -3.12502300282816    2.00671961875505
C       -11.10354226444385   -0.32527864106095   -0.16178711972148
C        -9.92481642359801   -0.62658520798901   -0.25095053913961
C        -8.62460883994470   -0.92259456206878   -0.34458205885566
C        -7.42739168219066   -1.16680356904920   -0.42048817507085
C        -6.11103545511937   -1.38407616150468   -0.50042024546778
C        -4.90402136064733   -1.55045061203368   -0.56497775483413
C         4.88466496487222   -1.52029195336740   -0.43312783311526
C         6.09009875485968   -1.33899954047535   -0.37106281528696
C         7.40392798836665   -1.10900791473193   -0.29808919444575
C         8.60021126288797   -0.85766136373566   -0.22446687645650
C         9.89920627178144   -0.55734017038303   -0.13954717346173
C        11.07947923753171   -0.25984656279365   -0.05475942278229
C        -2.56203798232314   -3.58119730681102    2.25074701022367
C        -3.52909447295807   -3.02903918423421    1.49206852223910
C        -2.84513175122234   -2.35769253318145    0.40240447364629
C        -3.51484659439330   -1.67260032177385   -0.63005721284430
C        -2.86227922141391   -1.08240503390454   -1.72555096694198
C        -3.45278069839758   -0.43064995973565   -2.83981858306005
C        -2.43821588753028   -0.01830406311571   -3.65577582235815
C        -1.20807570885621   -0.39978537883169   -3.05082587136770
N        -1.51689184899389   -1.04571662000887   -1.89295764227009
C         0.06317275381505   -0.12706025439635   -3.53674128239986
C         1.28499613129595   -0.41452921855087   -2.94980519007318
C         2.54698679242759    0.00053390707324   -3.53862580941645
C         3.51197032993458   -0.40101987219915   -2.68829565842786
C         2.82785252690270   -1.07143597890726   -1.59795019678851
N         1.49702452687895   -1.06439570685987   -1.78002162274587
C         3.49872539430257   -1.66150013159496   -0.50737108657906
C         2.84873714012601   -2.37193070421274    0.51548418538932
C         3.43865030793826   -3.04871476076189    1.61488914604332
C         2.42507485261782   -3.59931286442435    2.34629995285514
C         1.19555051316443   -3.26066411963655    1.71464702571888
N         1.50453966532605   -2.52650063438990    0.61057491959764
C        -0.07537192532686   -3.58970753918667    2.16566143700869
C        -1.29889599960291   -3.22564255813227    1.62553240158081
N        -1.51215348438354   -2.49186296456068    0.50731984165152
H        -2.65706492336293   -4.16381773426414    3.14685807983380
H        -4.59395099045593   -3.05917240430043    1.62005287279327
H        -4.50773059275865   -0.30457495980084   -2.98688677853610
H        -2.52361636017395    0.50667432942740   -4.58722775941899
H        -0.86598308256260   -1.44620674146565   -1.22626452561697
H         0.10159244323615    0.40208821324346   -4.47930401003130
H         2.64271397414865    0.52953643978852   -4.46728869995789
H         4.57544940390540   -0.28125595936324   -2.76269139382305
H         4.49269189048197   -3.10255733721550    1.80648122887369
H         2.51064942722929   -4.18116285896830    3.24334326556107
H         0.85436490615817   -2.13176969572521   -0.06024604338685
H        -0.11303624981504   -4.18259556707610    3.06958252410953

          :  Hamiltonian                  GFN2-xTB          :
         :: gradient norm              0.000581478184 Eh/a0 ::
         :: HOMO-LUMO gap              1.033196229144 eV    ::
         :: SCC energy              -212.330730178049 Eh    ::
         :: -> dispersion             -0.166442870528 Eh    ::
         :: repulsion energy           4.056376091196 Eh    ::

    * Orbital Energies and Occupations

         #    Occupation            Energy/Eh            Energy/eV
      -------------------------------------------------------------
         1        2.0000           -0.6853028             -18.6480
       ...           ...                  ...                  ...
       181        2.0000           -0.3792736             -10.3206
       182        2.0000           -0.3741089             -10.1800
       183        2.0000           -0.3736228             -10.1668
       184        2.0000           -0.3724331             -10.1344
       185        2.0000           -0.3723805             -10.1330
       186        2.0000           -0.3714634             -10.1080
       187        2.0000           -0.3713968             -10.1062
       188        2.0000           -0.3702180             -10.0741
       189        2.0000           -0.3689355             -10.0392
       190        2.0000           -0.3688916             -10.0381
       191        2.0000           -0.3583539              -9.7513
       192        2.0000           -0.3545871              -9.6488
       193        2.0000           -0.3489479              -9.4954 (HOMO)
       194                         -0.3109787              -8.4622 (LUMO)
       195                         -0.3038498              -8.2682
       196                         -0.3007432              -8.1836
       197                         -0.2985664              -8.1244
       198                         -0.2976591              -8.0997
       199                         -0.2974499              -8.0940
       200                         -0.2723160              -7.4101
       201                         -0.2638081              -7.1786
       202                         -0.2620874              -7.1318
       203                         -0.2474295              -6.7329
       204                         -0.2409001              -6.5552
       ...                                ...                  ...
       374                          1.7154315              46.6793
      -------------------------------------------------------------
                  HL-Gap            0.0379693 Eh            1.0332 eV

     #   Z          covCN         q      C6AA      α(0)
     1   6 C        3.016    -0.055    29.333     8.884
     2   6 C        3.009    -0.053    29.300     8.879
     3   6 C        3.197     0.087    25.562     8.242
     4   6 C        2.952     0.011    27.763     8.642
     5   6 C        3.096     0.064    26.453     8.429
     6   6 C        3.026    -0.050    29.208     8.865
     7   6 C        3.034    -0.052    29.251     8.871
     8   6 C        3.073     0.065    26.481     8.437
     9   7 N        2.785    -0.082    22.826     7.096
    10   6 C        2.899    -0.055    29.373     8.886
    11   6 C        3.170     0.087    25.715     8.284
    12   6 C        3.012    -0.054    29.315     8.882
    13   6 C        3.009    -0.054    29.316     8.882
    14   6 C        3.174     0.086    25.706     8.281
    15   7 N        1.870    -0.321    29.176     8.007
    16   6 C        2.899    -0.057    29.410     8.892
    17   6 C        3.074     0.065    26.469     8.435
    18   6 C        3.026    -0.051    29.237     8.869
    19   6 C        3.031    -0.051    29.229     8.868
    20   6 C        3.069     0.066    26.459     8.434
    21   7 N        2.787    -0.081    22.815     7.094
    22   6 C        2.899    -0.055    29.369     8.886
    23   6 C        3.175     0.086    25.716     8.282
    24   7 N        1.870    -0.325    29.280     8.021
    25   1 H        0.926     0.019     2.750     2.593
    26   1 H        0.926     0.021     2.713     2.575
    27   1 H        0.926     0.043     2.408     2.427
    28   1 H        0.926     0.041     2.431     2.438
    29   1 H        0.860     0.214     1.037     1.595
    30   1 H        0.925     0.047     2.360     2.402
    31   1 H        0.926     0.019     2.741     2.589
    32   1 H        0.926     0.020     2.740     2.589
    33   1 H        0.926     0.046     2.368     2.407
    34   1 H        0.926     0.042     2.422     2.434
    35   1 H        0.926     0.042     2.423     2.434
    36   1 H        0.860     0.214     1.035     1.594
    37   1 H        0.925     0.047     2.356     2.400
    38   6 C        3.016    -0.055    29.335     8.884
    39   6 C        3.009    -0.053    29.297     8.879
    40   6 C        3.196     0.087    25.563     8.243
    41   6 C        2.952     0.011    27.761     8.642
    42   6 C        3.097     0.064    26.451     8.429
    43   6 C        3.026    -0.050    29.212     8.866
    44   6 C        3.034    -0.052    29.250     8.871
    45   6 C        3.073     0.064    26.483     8.438
    46   7 N        2.785    -0.081    22.819     7.095
    47   6 C        2.899    -0.055    29.366     8.885
    48   6 C        3.171     0.087    25.716     8.284
    49   6 C        3.012    -0.054    29.315     8.881
    50   6 C        3.010    -0.054    29.317     8.882
    51   6 C        3.174     0.086    25.706     8.281
    52   7 N        1.870    -0.321    29.173     8.006
    53   6 C        2.899    -0.057    29.408     8.892
    54   6 C        3.074     0.065    26.469     8.435
    55   6 C        3.026    -0.051    29.238     8.869
    56   6 C        3.031    -0.051    29.230     8.868
    57   6 C        3.068     0.066    26.460     8.435
    58   7 N        2.787    -0.081    22.813     7.094
    59   6 C        2.899    -0.055    29.366     8.885
    60   6 C        3.175     0.086    25.717     8.282
    61   7 N        1.870    -0.325    29.283     8.021
    62   1 H        0.926     0.019     2.753     2.595
    63   1 H        0.926     0.021     2.715     2.577
    64   1 H        0.926     0.043     2.405     2.425
    65   1 H        0.926     0.041     2.429     2.437
    66   1 H        0.860     0.214     1.037     1.595
    67   1 H        0.925     0.047     2.358     2.401
    68   1 H        0.926     0.020     2.740     2.589
    69   1 H        0.926     0.020     2.740     2.588
    70   1 H        0.926     0.046     2.368     2.406
    71   1 H        0.926     0.042     2.422     2.434
    72   1 H        0.926     0.042     2.423     2.434
    73   1 H        0.860     0.214     1.036     1.594
    74   1 H        0.925     0.047     2.357     2.401
    75   6 C        1.995    -0.020    31.572     9.074
    76   6 C        1.963    -0.012    31.383     9.047
    77   6 C        1.964    -0.003    31.144     9.012
    78   6 C        1.964    -0.003    31.162     9.015
    79   6 C        1.963    -0.011    31.362     9.044
    80   6 C        1.994    -0.021    31.594     9.077
    81   6 C        1.994    -0.021    31.601     9.078
    82   6 C        1.963    -0.011    31.364     9.044
    83   6 C        1.965    -0.004    31.167     9.016
    84   6 C        1.965    -0.003    31.151     9.013
    85   6 C        1.963    -0.012    31.386     9.047
    86   6 C        1.996    -0.020    31.578     9.075
    87   6 C        3.017    -0.054    29.327     8.883
    88   6 C        3.008    -0.053    29.289     8.878
    89   6 C        3.196     0.087    25.567     8.243
    90   6 C        2.952     0.012    27.751     8.640
    91   6 C        3.101     0.064    26.456     8.429
    92   6 C        3.025    -0.050    29.220     8.867
    93   6 C        3.036    -0.052    29.247     8.870
    94   6 C        3.073     0.064    26.486     8.438
    95   7 N        2.785    -0.082    22.824     7.096
    96   6 C        2.899    -0.053    29.316     8.878
    97   6 C        3.174     0.085    25.727     8.284
    98   6 C        3.017    -0.054    29.329     8.883
    99   6 C        3.009    -0.053    29.300     8.879
   100   6 C        3.197     0.087    25.559     8.241
   101   7 N        1.870    -0.324    29.261     8.018
   102   6 C        2.952     0.012    27.755     8.641
   103   6 C        3.099     0.064    26.454     8.429
   104   6 C        3.025    -0.050    29.213     8.866
   105   6 C        3.036    -0.052    29.246     8.870
   106   6 C        3.072     0.064    26.486     8.438
   107   7 N        2.786    -0.082    22.830     7.096
   108   6 C        2.899    -0.053    29.318     8.878
   109   6 C        3.173     0.086    25.728     8.285
   110   7 N        1.870    -0.324    29.267     8.019
   111   1 H        0.926     0.019     2.749     2.593
   112   1 H        0.926     0.021     2.713     2.576
   113   1 H        0.926     0.043     2.409     2.427
   114   1 H        0.926     0.041     2.430     2.438
   115   1 H        0.860     0.215     1.034     1.593
   116   1 H        0.925     0.048     2.348     2.396
   117   1 H        0.926     0.019     2.749     2.593
   118   1 H        0.926     0.021     2.713     2.576
   119   1 H        0.926     0.043     2.408     2.427
   120   1 H        0.926     0.041     2.431     2.438
   121   1 H        0.860     0.214     1.035     1.594
   122   1 H        0.925     0.048     2.349     2.397

Wiberg/Mayer (AO) data.
largest (>0.10) Wiberg bond orders for each atom

     #   Z sym  total        # sym  WBO       # sym  WBO       # sym  WBO
 ---------------------------------------------------------------------------
     1   6 C    3.961 --     2 C    1.717    23 C    1.114    25 H    0.973
     2   6 C    3.961 --     1 C    1.717     3 C    1.121    26 H    0.971
     3   6 C    3.917 --    24 N    1.359     4 C    1.246     2 C    1.121
     4   6 C    3.942 --     5 C    1.252     3 C    1.246    75 C    1.186
     5   6 C    3.903 --     4 C    1.252     6 C    1.236     9 N    1.224
     6   6 C    3.956 --     7 C    1.594     5 C    1.236    27 H    0.972
     7   6 C    3.949 --     6 C    1.594     8 C    1.223    28 H    0.973
     8   6 C    3.918 --    10 C    1.345     7 C    1.223     9 N    1.203
     9   7 N    3.590 --     5 C    1.224     8 C    1.203    29 H    0.900
    10   6 C    3.923 --    11 C    1.357     8 C    1.345    30 H    0.964
    11   6 C    3.939 --    10 C    1.357    15 N    1.324    12 C    1.107
    12   6 C    3.963 --    13 C    1.731    11 C    1.107    31 H    0.973
    13   6 C    3.962 --    12 C    1.731    14 C    1.109    32 H    0.973
    14   6 C    3.938 --    16 C    1.354    15 N    1.325    13 C    1.109
    15   7 N    3.003 --    14 C    1.325    11 C    1.324
    16   6 C    3.925 --    14 C    1.354    17 C    1.347    33 H    0.965
    17   6 C    3.921 --    16 C    1.347    18 C    1.215    21 N    1.210
    18   6 C    3.950 --    19 C    1.609    17 C    1.215    34 H    0.973
    19   6 C    3.953 --    18 C    1.609    20 C    1.214    35 H    0.973
    20   6 C    3.916 --    22 C    1.343    19 C    1.214    21 N    1.211
    21   7 N    3.587 --    20 C    1.211    17 C    1.210    36 H    0.900
    22   6 C    3.938 --    23 C    1.365    20 C    1.343    37 H    0.964
    23   6 C    3.925 --    22 C    1.365    24 N    1.301     1 C    1.114
    24   7 N    3.011 --     3 C    1.359    23 C    1.301
    25   1 H    0.999 --     1 C    0.973
    26   1 H    0.999 --     2 C    0.971
    27   1 H    0.998 --     6 C    0.972
    28   1 H    0.998 --     7 C    0.973
    29   1 H    0.954 --     9 N    0.900
    30   1 H    0.997 --    10 C    0.964
    31   1 H    0.999 --    12 C    0.973
    32   1 H    0.999 --    13 C    0.973
    33   1 H    0.997 --    16 C    0.965
    34   1 H    0.998 --    18 C    0.973
    35   1 H    0.998 --    19 C    0.973
    36   1 H    0.954 --    21 N    0.900
    37   1 H    0.997 --    22 C    0.964
    38   6 C    3.960 --    39 C    1.717    60 C    1.115    62 H    0.973
    39   6 C    3.961 --    38 C    1.717    40 C    1.122    63 H    0.971
    40   6 C    3.916 --    61 N    1.360    41 C    1.245    39 C    1.122
    41   6 C    3.941 --    42 C    1.248    40 C    1.245    86 C    1.190
    42   6 C    3.902 --    41 C    1.248    43 C    1.237    46 N    1.225
    43   6 C    3.956 --    44 C    1.593    42 C    1.237    64 H    0.972
    44   6 C    3.948 --    43 C    1.593    45 C    1.224    65 H    0.973
    45   6 C    3.918 --    47 C    1.345    44 C    1.224    46 N    1.202
    46   7 N    3.590 --    42 C    1.225    45 C    1.202    66 H    0.900
    47   6 C    3.922 --    48 C    1.357    45 C    1.345    67 H    0.964
    48   6 C    3.939 --    47 C    1.357    52 N    1.324    49 C    1.107
    49   6 C    3.963 --    50 C    1.731    48 C    1.107    68 H    0.973
    50   6 C    3.962 --    49 C    1.731    51 C    1.109    69 H    0.973
    51   6 C    3.938 --    53 C    1.354    52 N    1.325    50 C    1.109
    52   7 N    3.002 --    51 C    1.325    48 C    1.324
    53   6 C    3.924 --    51 C    1.354    54 C    1.347    70 H    0.965
    54   6 C    3.921 --    53 C    1.347    55 C    1.215    58 N    1.210
    55   6 C    3.949 --    56 C    1.609    54 C    1.215    71 H    0.973
    56   6 C    3.953 --    55 C    1.609    57 C    1.215    72 H    0.973
    57   6 C    3.916 --    59 C    1.343    56 C    1.215    58 N    1.211
    58   7 N    3.587 --    57 C    1.211    54 C    1.210    73 H    0.900
    59   6 C    3.937 --    60 C    1.366    57 C    1.343    74 H    0.964
    60   6 C    3.924 --    59 C    1.366    61 N    1.300    38 C    1.115
    61   7 N    3.010 --    40 C    1.360    60 C    1.300
    62   1 H    0.999 --    38 C    0.973
    63   1 H    0.999 --    39 C    0.971
    64   1 H    0.998 --    43 C    0.972
    65   1 H    0.998 --    44 C    0.973
    66   1 H    0.954 --    46 N    0.900
    67   1 H    0.997 --    47 C    0.964
    68   1 H    0.999 --    49 C    0.973
    69   1 H    0.999 --    50 C    0.973
    70   1 H    0.997 --    53 C    0.965
    71   1 H    0.998 --    55 C    0.973
    72   1 H    0.998 --    56 C    0.973
    73   1 H    0.954 --    58 N    0.900
    74   1 H    0.997 --    59 C    0.964
    75   6 C    3.880 --    76 C    2.443     4 C    1.186    78 C    0.191
    76   6 C    3.924 --    75 C    2.443    77 C    1.329
    77   6 C    3.913 --    78 C    2.358    76 C    1.329    80 C    0.191
    78   6 C    3.915 --    77 C    2.358    79 C    1.330    75 C    0.191
    79   6 C    3.920 --    80 C    2.439    78 C    1.330
    80   6 C    3.881 --    79 C    2.439    90 C    1.190    77 C    0.191
    81   6 C    3.882 --    82 C    2.435   102 C    1.195    84 C    0.191
    82   6 C    3.920 --    81 C    2.435    83 C    1.334
    83   6 C    3.916 --    84 C    2.353    82 C    1.334    86 C    0.191
    84   6 C    3.915 --    83 C    2.353    85 C    1.333    81 C    0.191
    85   6 C    3.924 --    86 C    2.439    84 C    1.333
    86   6 C    3.881 --    85 C    2.439    41 C    1.190    83 C    0.191
    87   6 C    3.961 --    88 C    1.716   109 C    1.114   111 H    0.973
    88   6 C    3.961 --    87 C    1.716    89 C    1.123   112 H    0.972
    89   6 C    3.917 --   110 N    1.359    90 C    1.246    88 C    1.123
    90   6 C    3.928 --    89 C    1.246    91 C    1.245    80 C    1.190
    91   6 C    3.903 --    90 C    1.245    92 C    1.240    95 N    1.226
    92   6 C    3.953 --    93 C    1.589    91 C    1.240   113 H    0.972
    93   6 C    3.950 --    92 C    1.589    94 C    1.227   114 H    0.973
    94   6 C    3.914 --    96 C    1.337    93 C    1.227    95 N    1.203
    95   7 N    3.586 --    91 C    1.226    94 C    1.203   115 H    0.897
    96   6 C    3.924 --    97 C    1.370    94 C    1.337   116 H    0.963
    97   6 C    3.926 --    96 C    1.370   101 N    1.296    98 C    1.115
    98   6 C    3.961 --    99 C    1.716    97 C    1.115   117 H    0.973
    99   6 C    3.961 --    98 C    1.716   100 C    1.123   118 H    0.972
   100   6 C    3.916 --   101 N    1.362   102 C    1.241    99 C    1.123
   101   7 N    3.002 --   100 C    1.362    97 C    1.296
   102   6 C    3.929 --   103 C    1.246   100 C    1.241    81 C    1.195
   103   6 C    3.903 --   102 C    1.246   104 C    1.240   107 N    1.226
   104   6 C    3.953 --   105 C    1.589   103 C    1.240   119 H    0.972
   105   6 C    3.949 --   104 C    1.589   106 C    1.227   120 H    0.973
   106   6 C    3.915 --   108 C    1.337   105 C    1.227   107 N    1.203
   107   7 N    3.586 --   103 C    1.226   106 C    1.203   121 H    0.897
   108   6 C    3.923 --   109 C    1.369   106 C    1.337   122 H    0.963
   109   6 C    3.927 --   108 C    1.369   110 N    1.298    87 C    1.114
   110   7 N    3.002 --    89 C    1.359   109 C    1.298
   111   1 H    0.999 --    87 C    0.973
   112   1 H    0.999 --    88 C    0.972
   113   1 H    0.998 --    92 C    0.972
   114   1 H    0.998 --    93 C    0.973
   115   1 H    0.954 --    95 N    0.897
   116   1 H    0.997 --    96 C    0.963
   117   1 H    0.999 --    98 C    0.973
   118   1 H    0.999 --    99 C    0.972
   119   1 H    0.998 --   104 C    0.972
   120   1 H    0.998 --   105 C    0.973
   121   1 H    0.954 --   107 N    0.897
   122   1 H    0.997 --   108 C    0.963
 ---------------------------------------------------------------------------

molecular dipole:
                 x           y           z       tot (Debye)
 q only:        0.010       0.172       0.050
   full:        0.011       0.232       0.087       0.631

 projected vibrational frequencies (cm⁻¹)
eigval :       -0.00    -0.00     0.00     0.00     0.00     0.00
eigval :       -3.11    -0.94     2.78     3.59     6.97     7.29
eigval :       13.13    16.61    22.49    24.18    29.54    41.28
eigval :       41.51    42.29    42.55    47.90    52.94    56.65
eigval :       66.32    72.47    83.28    85.72    89.55    95.17
eigval :       96.56   102.56   111.20   114.82   115.72   116.39
eigval :      118.00   119.11   141.89   141.98   142.71   150.14
eigval :      153.18   160.84   169.58   178.45   180.83   183.42
eigval :      183.67   185.04   200.12   201.45   202.12   203.38
eigval :      205.25   218.16   251.76   264.47   264.65   265.13
eigval :      265.43   266.85   269.92   274.93   281.94   283.18
eigval :      288.17   297.66   298.62   314.86   315.44   321.88
eigval :      338.73   340.25   340.60   342.17   345.04   345.89
eigval :      348.36   349.67   352.06   352.29   357.05   359.59
eigval :      362.09   362.60   365.84   382.85   384.90   389.47
eigval :      391.67   393.56   394.04   394.14   398.28   416.45
eigval :      420.59   422.21   430.23   430.28   437.04   439.05
eigval :      440.21   441.63   452.90   460.58   501.95   503.18
eigval :      503.26   504.62   600.46   600.63   600.67   605.04
eigval :      605.14   605.21   624.81   627.22   627.30   636.76
eigval :      636.79   638.03   647.08   647.13   649.78   650.02
eigval :      651.07   651.13   653.95   654.16   660.05   662.09
eigval :      665.66   667.52   668.23   668.46   670.26   700.78
eigval :      706.18   715.32   716.65   724.06   724.98   730.37
eigval :      732.64   734.06   741.39   741.95   742.76   745.00
eigval :      748.87   749.46   754.85   760.46   761.39   762.23
eigval :      770.54   770.83   783.66   789.16   789.38   791.13
eigval :      798.53   798.63   804.52   806.19   806.39   806.72
eigval :      812.23   812.24   817.00   818.84   819.34   819.35
eigval :      828.00   828.07   836.45   836.57   837.54   837.81
eigval :      839.33   839.38   842.33   842.37   842.93   843.01
eigval :      843.54   843.83   852.56   852.56   853.47   853.60
eigval :      853.69   853.99   895.73   897.15   948.95   951.12
eigval :      960.18   960.33   960.54   973.19   973.97   974.09
eigval :      977.46   978.55   999.58   999.74  1001.19  1005.01
eigval :     1008.61  1009.48  1016.23  1016.36  1023.31  1031.20
eigval :     1031.54  1034.89  1047.52  1049.45  1063.42  1063.55
eigval :     1065.14  1066.25  1066.68  1067.09  1069.48  1069.59
eigval :     1069.84  1074.60  1074.98  1075.12  1093.20  1106.24
eigval :     1120.69  1122.19  1125.12  1127.18  1139.40  1146.69
eigval :     1155.54  1160.88  1169.14  1170.68  1180.43  1182.68
eigval :     1183.66  1185.03  1188.31  1203.96  1206.86  1208.52
eigval :     1230.16  1233.63  1233.72  1251.87  1255.72  1256.32
eigval :     1279.24  1285.16  1285.27  1293.15  1294.86  1296.21
eigval :     1305.78  1306.13  1328.42  1338.00  1338.54  1338.83
eigval :     1347.10  1347.32  1361.48  1362.88  1365.62  1369.01
eigval :     1374.96  1375.50  1381.84  1383.22  1383.36  1385.76
eigval :     1388.11  1388.20  1391.56  1394.81  1398.06  1436.28
eigval :     1449.18  1452.47  1464.05  1465.42  1476.90  1479.25
eigval :     1481.85  1488.94  1492.81  1500.53  1504.48  1504.74
eigval :     1505.88  1506.65  1508.07  1509.83  1509.99  1514.19
eigval :     1514.40  1537.97  1548.32  1550.01  1550.09  1555.01
eigval :     1555.57  1556.15  1560.42  1560.68  1582.11  1585.33
eigval :     1585.46  1586.83  1594.66  1594.84  2152.86  2161.39
eigval :     2200.47  2201.67  2259.98  2260.58  3074.23  3074.85
eigval :     3076.50  3076.90  3077.58  3077.78  3086.34  3086.38
eigval :     3140.13  3140.13  3144.64  3144.69  3145.15  3145.47
eigval :     3155.21  3155.39  3156.61  3156.62  3159.38  3159.59
eigval :     3159.75  3160.15  3160.36  3160.69  3161.63  3161.80
eigval :     3168.99  3169.13  3171.62  3171.92  3172.07  3172.70
eigval :     3331.36  3334.78  3345.16  3348.86  3353.66  3357.72

   temp. (K)  partition function   enthalpy   heat capacity  entropy
                                   cal/mol     cal/K/mol   cal/K/mol   J/K/mol
 298.15  VIB  0.738E+35            41254.788    266.941    262.639
         ROT  0.116E+10              888.752      2.981     44.454
         INT  0.854E+44            42143.541    269.922    307.094
         TR   0.339E+29             1481.254      4.968     46.765
         TOT                       43624.7945   274.8905   353.8587  1480.5450

       T/K    H(0)-H(T)+PV         H(T)/Eh          T*S/Eh         G(T)/Eh
   ------------------------------------------------------------------------
    298.15    0.695205E-01    0.941119E+00    0.168130E+00    0.772989E+00
   ------------------------------------------------------------------------

         :::::::::::::::::::::::::::::::::::::::::::::::::::::
         ::                  THERMODYNAMIC                  ::
         :::::::::::::::::::::::::::::::::::::::::::::::::::::
         :: total free energy        -207.503651529759 Eh   ::
         ::.................................................::
         :: total energy             -208.276640532281 Eh   ::
         :: zero point energy           0.871598177263 Eh   ::
         :: G(RRHO) w/o ZPVE           -0.098609174742 Eh   ::
         :: G(RRHO) contrib.            0.772989002522 Eh   ::
         :::::::::::::::::::::::::::::::::::::::::::::::::::::

           -------------------------------------------------
          | TOTAL ENERGY             -208.276640532281 Eh   |
          | TOTAL ENTHALPY           -207.335521819872 Eh   |
          | TOTAL FREE ENERGY        -207.503651529759 Eh   |
          | GRADIENT NORM               0.000581527090 Eh/α |
          | HOMO-LUMO GAP               1.033196808759 eV   |
           -------------------------------------------------

 * finished run on 2021/11/18 at 17:33:20.681
