   * xtb version 6.4.1 (bd6e46d) compiled by 'conda@4901f00b25ba' on 2021-06-10
          program call               : /home/jeff/miniconda3/bin/xtb input_structure_1.xyz --gfn 2 --ohess normal --parallel 1 --etemp 300 --chrg 0 --uhf 0 -I det_control.in
          number of atoms            :                   111
          number of electrons        :                   381
          charge                     :                     0
          spin                       :                   0.5

   ID    Z sym.   atoms
    1   29 Cu     1, 37, 77
    2    6 C      2-9, 11-15, 17-21, 23, 24, 38-45, 47-51, 53-57, 59, 60,
                  73-76, 78-85, 87-91, 93-97, 99, 100
    3    7 N      10, 16, 22, 25, 46, 52, 58, 61, 86, 92, 98, 101
    4    1 H      26-36, 62-72, 102-111

          :  Hamiltonian                  GFN2-xTB          :
 * total energy  :  -199.3248940 Eh     change       -0.2214313E-06 Eh
 * total energy  :  -199.5131001 Eh     change       -0.1882061E+00 Eh
 * total energy  :  -199.6210252 Eh     change       -0.1079251E+00 Eh
 * total energy  :  -199.6777082 Eh     change       -0.5668292E-01 Eh
 * total energy  :  -199.7202492 Eh     change       -0.4254101E-01 Eh
 * total energy  :  -199.7574449 Eh     change       -0.3719571E-01 Eh
 * total energy  :  -199.7980044 Eh     change       -0.4055948E-01 Eh
 * total energy  :  -199.8442392 Eh     change       -0.4623484E-01 Eh
 * total energy  :  -199.8943536 Eh     change       -0.5011444E-01 Eh
 * total energy  :  -199.9403400 Eh     change       -0.4598632E-01 Eh
 * total energy  :  -200.2532442 Eh     change       -0.6116384E-04 Eh
 * total energy  :  -200.2532816 Eh     change       -0.3745017E-04 Eh
 * total energy  :  -200.2532972 Eh     change       -0.1555317E-04 Eh
 * total energy  :  -200.2533139 Eh     change       -0.1669227E-04 Eh
 * total energy  :  -200.2533233 Eh     change       -0.9457605E-05 Eh
 * total energy  :  -200.2533409 Eh     change       -0.1755344E-04 Eh
 * total energy  :  -200.2533481 Eh     change       -0.7254923E-05 Eh
 * total energy  :  -200.2533561 Eh     change       -0.7980282E-05 Eh
 * total energy  :  -200.2533610 Eh     change       -0.4848354E-05 Eh
   *** GEOMETRY OPTIMIZATION CONVERGED AFTER 100 ITERATIONS ***

 final structure:
================
111
 xtb: 6.4.1 (bd6e46d)
Cu       17.02250774388830   -0.00556122384451   -0.00404846172716
C        19.49201989657702   -3.20620922791858    1.32394685229192
C        20.46047774665773   -2.32942969887374    0.96801655632759
C        19.79489299355391   -1.16701846938238    0.45356922648923
C        20.46270933481702   -0.03835266161829   -0.04163904126671
C        19.80535689165622    1.09483395961502   -0.54138436924725
C        20.48116064343077    2.23265047318969   -1.09572625666914
C        19.52122811761816    3.11672806327439   -1.45692620306762
C        18.26082361110582    2.51607282098906   -1.12551205314487
N        18.46653117447383    1.28714138419112   -0.57894204613262
C        17.03563030108966    3.12455541881378   -1.33226458604106
C        15.80597806037323    2.56661251052925   -1.03192415611617
C        14.54577866640328    3.22462949901578   -1.24606546513597
C        13.58371624654586    2.36450824262882   -0.84175643875901
C        14.25471489820948    1.17822720775589   -0.38376623921731
N        15.59711346481827    1.33283542735188   -0.50691929876394
C        13.60696788773040    0.05196621586648    0.09308284558620
C        14.24211621870420   -1.10089418407158    0.52087800044102
C        13.55819958477505   -2.27145210859501    0.99982648899730
C        14.51166152286711   -3.17462118005341    1.32371078781229
C        15.77918285066372   -2.55543674122134    1.04620775408141
N        15.58318533687330   -1.30453637773288    0.55779799526632
C        17.00428892251406   -3.15659357907762    1.27345712164442
C        18.23628784289683   -2.57353381671051    1.03640721152295
N        18.45382983759862   -1.33658426945246    0.51313536357922
H        19.59858086531016   -4.18668755971845    1.74624778636174
H        21.52449592865695   -2.43489156985613    1.04968984377255
H        21.54503014836648    2.31639037515227   -1.20188130202472
H        19.63685471515497    4.08372281132878   -1.90695222343466
H        17.04085829829323    4.11567909086668   -1.76249358420060
H        14.43634753688964    4.21209841519646   -1.65106115348273
H        12.51898130470473    2.49750062347301   -0.84680695075875
H        12.52745825521251    0.07204784745028    0.12882343889218
H        12.49167187831657   -2.36665586020577    1.06993496682197
H        14.39169344740584   -4.16659757758042    1.71499863793363
H        16.99979379978937   -4.15769652886679    1.68017754074493
Cu       38.82971577407769    0.05015282322775   -0.00549496137905
C        36.33808625570894    3.16358105179810    1.48129862821913
C        35.37558032378968    2.30407299551240    1.07114538987676
C        36.04953238696871    1.17350174838183    0.49985535840167
C        35.38981612116128    0.06829134817751   -0.05549398166861
C        36.05409404389152   -1.03634933763739   -0.60659315953640
C        35.38546631816293   -2.15030446824229   -1.21578165650921
C        36.35102347319931   -3.01087456780379   -1.61676950646896
C        37.60764397349640   -2.41954055701357   -1.25485519534978
N        37.39396067602529   -1.21962671930608   -0.65024764134669
C        38.83689820669692   -3.00947167772098   -1.48995554274781
C        40.06286305620043   -2.45816468983579   -1.16310965782226
C        41.32756235309042   -3.09519045737680   -1.41225123122087
C        42.28423450761543   -2.24781145728287   -0.96923235220724
C        41.60534960460027   -1.09105782548823   -0.45087880841923
N        40.26385474021706   -1.25024546362109   -0.57827072103204
C        42.24532325551221    0.01372635049883    0.08310831751851
C        41.60238672108566    1.13507293867385    0.57768928702785
C        42.27840205609842    2.28028184346359    1.12445645607121
C        41.31880166116194    3.15504695619344    1.50306951965318
C        40.05533590188515    2.54483566762332    1.18936799924298
N        40.26007966670327    1.32620670900429    0.62834155342254
C        38.82638625293238    3.12565433158936    1.44606128940715
C        37.59824076644779    2.55217466588930    1.16872555605746
N        37.38944717412477    1.34485926919886    0.57729756014900
H        36.22450496352955    4.11935107343281    1.95519295448963
H        34.31057100390451    2.40120012073576    1.15057140730559
H        34.32208851670396   -2.23505333744521   -1.32681914324019
H        36.24156331629128   -3.95596075411443   -2.11268546867119
H        38.83825293425855   -3.97861818963813   -1.96786899054286
H        41.44365696487573   -4.06106218297253   -1.86511043557363
H        43.34994967399058   -2.37191943512221   -0.98366195331409
H        43.32509335209222    0.00113917170388    0.11351688786735
H        43.34423285772781    2.37923516851762    1.19911513805979
H        41.43199468092531    4.12233915646857    1.95349487006750
H        38.82417091531633    4.10181374174876    1.90933230286959
C        21.86504061886944   -0.04197392713669   -0.03907456469463
C        23.07815969269779   -0.03664206092339   -0.03288640789825
C        32.77446363400716    0.06066872285790   -0.05204344259756
C        33.98747234149275    0.06670064057461   -0.05956287641222
Cu       27.92642691894842    0.01032244343118   -0.01829621529557
C        25.47662124282779   -3.46501724712308   -0.16713524857186
C        24.50118396141196   -2.52569604507013   -0.16708257379417
C        25.15637308891137   -1.25212655496617   -0.08161468699564
C        24.48001037957811   -0.02515226156598   -0.02483836966648
C        25.13110272171217    1.21513161796456    0.04233398202488
C        24.44936573127571    2.47410180234410    0.13754586985766
C        25.40545056297801    3.43298741289206    0.15433019484691
C        26.66885162363361    2.75727654101158    0.07559200358383
N        26.46887585172665    1.41274372585715    0.01842432995502
C        27.89162262945354    3.40303588726672    0.04400247296850
C        29.12738414629567    2.78471264100912   -0.01761470850372
C        30.37625497501466    3.48902484002443   -0.07830914837681
C        31.35147505519141    2.55006566711414   -0.11040082040079
C        30.69621925609178    1.27451294705040   -0.06007932477520
N        29.35503112945587    1.44350334203641   -0.01629208580450
C        31.37266890584219    0.04651721269643   -0.04281821496373
C        30.72226898639435   -1.19540253749527   -0.01012035739444
C        31.40499296668154   -2.45633989997468    0.04423130758022
C        30.44896034917199   -3.41548512304910    0.03996744153969
C        29.18492738155904   -2.73820193571647   -0.01141570706752
N        29.38452970013122   -1.39243692188897   -0.03168605168729
C        27.96167045026994   -3.38242307503605   -0.05426738879050
C        26.72562648234364   -2.76260589630144   -0.09120905198410
N        26.49775861419506   -1.42203123504356   -0.04875492983646
H        25.37853420553233   -4.53216236825795   -0.21798183253546
H        23.43923340110316   -2.66035678565473   -0.23098435841011
H        23.38458771115645    2.58660898500389    0.19764838109419
H        25.28524314347569    4.49725403126822    0.21661615080633
H        27.88047514995041    4.48344004020321    0.06684967081603
H        30.47434483588325    4.55720574163896   -0.09748329016028
H        32.41324759188674    2.68644156779227   -0.17492310039033
H        32.47032504440272   -2.57005592590806    0.09297078076966
H        30.56975758090693   -4.48105404859621    0.07161236175564
H        27.97262151284711   -4.46306372359735   -0.06268984882152

          :  Hamiltonian                  GFN2-xTB          :
         :: gradient norm              0.000764065098 Eh/a0 ::
         :: HOMO-LUMO gap              0.000555407511 eV    ::
         :: SCC energy              -203.657454517091 Eh    ::
         :: -> dispersion             -0.183714733384 Eh    ::
         :: repulsion energy           3.406813970050 Eh    ::

    * Orbital Energies and Occupations

         #    Occupation            Energy/Eh            Energy/eV
      -------------------------------------------------------------
         1        2.0000           -0.6784900             -18.4627
       ...           ...                  ...                  ...
       179        2.0000           -0.3760574             -10.2330
       180        2.0000           -0.3750421             -10.2054
       181        2.0000           -0.3718303             -10.1180
       182        2.0000           -0.3703543             -10.0779
       183        2.0000           -0.3703141             -10.0768
       184        2.0000           -0.3702230             -10.0743
       185        2.0000           -0.3692259             -10.0471
       186        2.0000           -0.3691312             -10.0446
       187        2.0000           -0.3681573             -10.0181
       188        2.0000           -0.3623645              -9.8604
       189        2.0000           -0.3514334              -9.5630
       190        1.0244           -0.3208245              -8.7301
       191        0.9924           -0.3207560              -8.7282 (HOMO)
       192        0.9826           -0.3207350              -8.7276 (LUMO)
       193        0.0006           -0.3127889              -8.5114
       194                         -0.3014140              -8.2019
       195                         -0.2991169              -8.1394
       196                         -0.2990754              -8.1383
       197                         -0.2989202              -8.1340
       198                         -0.2903363              -7.9005
       199                         -0.2666173              -7.2550
       200                         -0.2585089              -7.0344
       201                         -0.2535440              -6.8993
       202                         -0.1909591              -5.1963
       ...                                ...                  ...
       363                          1.4081414              38.3175
      -------------------------------------------------------------
                  HL-Gap            0.0000210 Eh            0.0006 eV

     #   Z          covCN         q      C6AA      α(0)
     1  29 Cu       2.957     0.196   146.206    27.533
     2   6 C        3.022    -0.051    29.235     8.869
     3   6 C        3.021    -0.049    29.188     8.862
     4   6 C        3.162     0.078    25.944     8.326
     5   6 C        2.953     0.018    27.597     8.616
     6   6 C        3.162     0.078    25.943     8.325
     7   6 C        3.021    -0.049    29.194     8.863
     8   6 C        3.022    -0.051    29.235     8.869
     9   6 C        3.148     0.077    26.026     8.346
    10   7 N        2.621    -0.171    24.714     7.383
    11   6 C        2.901    -0.050    29.234     8.865
    12   6 C        3.144     0.078    26.012     8.345
    13   6 C        3.020    -0.050    29.210     8.865
    14   6 C        3.020    -0.050    29.214     8.866
    15   6 C        3.145     0.079    25.994     8.342
    16   7 N        2.623    -0.170    24.683     7.379
    17   6 C        2.901    -0.051    29.277     8.872
    18   6 C        3.144     0.079    25.996     8.342
    19   6 C        3.020    -0.050    29.215     8.866
    20   6 C        3.019    -0.050    29.211     8.866
    21   6 C        3.144     0.078    26.011     8.345
    22   7 N        2.623    -0.170    24.684     7.379
    23   6 C        2.901    -0.050    29.235     8.865
    24   6 C        3.147     0.077    26.027     8.346
    25   7 N        2.621    -0.171    24.714     7.383
    26   1 H        0.926     0.034     2.525     2.485
    27   1 H        0.926     0.035     2.515     2.480
    28   1 H        0.926     0.035     2.511     2.478
    29   1 H        0.926     0.034     2.525     2.485
    30   1 H        0.926     0.050     2.323     2.384
    31   1 H        0.926     0.035     2.518     2.482
    32   1 H        0.926     0.035     2.519     2.482
    33   1 H        0.926     0.049     2.333     2.388
    34   1 H        0.926     0.035     2.519     2.482
    35   1 H        0.926     0.035     2.518     2.482
    36   1 H        0.926     0.050     2.323     2.384
    37  29 Cu       2.956     0.196   146.207    27.533
    38   6 C        3.022    -0.051    29.235     8.869
    39   6 C        3.021    -0.049    29.190     8.862
    40   6 C        3.162     0.078    25.943     8.325
    41   6 C        2.953     0.018    27.598     8.616
    42   6 C        3.162     0.078    25.944     8.326
    43   6 C        3.021    -0.049    29.193     8.863
    44   6 C        3.022    -0.051    29.235     8.869
    45   6 C        3.147     0.077    26.027     8.346
    46   7 N        2.620    -0.171    24.715     7.383
    47   6 C        2.901    -0.050    29.235     8.865
    48   6 C        3.144     0.078    26.013     8.345
    49   6 C        3.019    -0.050    29.211     8.866
    50   6 C        3.019    -0.050    29.215     8.866
    51   6 C        3.144     0.079    25.997     8.343
    52   7 N        2.623    -0.170    24.683     7.379
    53   6 C        2.901    -0.051    29.277     8.872
    54   6 C        3.144     0.079    25.996     8.342
    55   6 C        3.019    -0.050    29.215     8.866
    56   6 C        3.019    -0.050    29.211     8.866
    57   6 C        3.144     0.078    26.013     8.345
    58   7 N        2.623    -0.170    24.684     7.379
    59   6 C        2.901    -0.050    29.235     8.865
    60   6 C        3.147     0.077    26.026     8.346
    61   7 N        2.620    -0.171    24.715     7.383
    62   1 H        0.926     0.034     2.526     2.485
    63   1 H        0.926     0.035     2.514     2.479
    64   1 H        0.926     0.035     2.512     2.478
    65   1 H        0.926     0.034     2.526     2.485
    66   1 H        0.926     0.050     2.324     2.384
    67   1 H        0.926     0.035     2.519     2.482
    68   1 H        0.926     0.035     2.519     2.482
    69   1 H        0.926     0.049     2.333     2.389
    70   1 H        0.926     0.035     2.519     2.482
    71   1 H        0.926     0.035     2.519     2.482
    72   1 H        0.926     0.050     2.324     2.384
    73   6 C        1.992    -0.028    31.800     9.107
    74   6 C        1.992    -0.028    31.796     9.106
    75   6 C        1.992    -0.028    31.796     9.106
    76   6 C        1.992    -0.028    31.799     9.107
    77  29 Cu       2.949     0.198   146.186    27.531
    78   6 C        3.022    -0.051    29.235     8.869
    79   6 C        3.021    -0.049    29.195     8.863
    80   6 C        3.162     0.078    25.934     8.324
    81   6 C        2.953     0.018    27.599     8.617
    82   6 C        3.163     0.078    25.932     8.323
    83   6 C        3.021    -0.049    29.201     8.864
    84   6 C        3.022    -0.051    29.235     8.869
    85   6 C        3.148     0.077    26.034     8.347
    86   7 N        2.620    -0.172    24.740     7.387
    87   6 C        2.901    -0.048    29.185     8.858
    88   6 C        3.148     0.077    26.033     8.346
    89   6 C        3.022    -0.051    29.235     8.869
    90   6 C        3.021    -0.049    29.196     8.863
    91   6 C        3.163     0.078    25.932     8.323
    92   7 N        2.619    -0.172    24.742     7.387
    93   6 C        2.953     0.018    27.599     8.617
    94   6 C        3.163     0.078    25.931     8.323
    95   6 C        3.021    -0.049    29.201     8.864
    96   6 C        3.022    -0.051    29.234     8.869
    97   6 C        3.148     0.077    26.035     8.347
    98   7 N        2.620    -0.172    24.741     7.387
    99   6 C        2.901    -0.048    29.185     8.858
   100   6 C        3.148     0.077    26.034     8.347
   101   7 N        2.620    -0.172    24.741     7.387
   102   1 H        0.926     0.034     2.531     2.488
   103   1 H        0.926     0.034     2.525     2.485
   104   1 H        0.926     0.035     2.519     2.482
   105   1 H        0.926     0.034     2.531     2.488
   106   1 H        0.926     0.050     2.320     2.382
   107   1 H        0.926     0.034     2.531     2.488
   108   1 H        0.926     0.034     2.524     2.484
   109   1 H        0.926     0.035     2.519     2.482
   110   1 H        0.926     0.034     2.531     2.488
   111   1 H        0.926     0.050     2.320     2.382

Wiberg/Mayer (AO) data.
largest (>0.10) Wiberg bond orders for each atom

     #   Z sym  total        # sym  WBO       # sym  WBO       # sym  WBO
 ---------------------------------------------------------------------------
     1  29 Cu   2.328 --    22 N    0.534    16 N    0.534    10 N    0.533
                            25 N    0.533
     2   6 C    3.946 --     3 C    1.651    24 C    1.166    26 H    0.972
     3   6 C    3.950 --     2 C    1.651     4 C    1.174    27 H    0.968
     4   6 C    3.914 --    25 N    1.287     5 C    1.256     3 C    1.174
     5   6 C    3.942 --     4 C    1.256     6 C    1.255    73 C    1.171
     6   6 C    3.914 --    10 N    1.287     5 C    1.255     7 C    1.174
     7   6 C    3.950 --     8 C    1.651     6 C    1.174    28 H    0.968
     8   6 C    3.946 --     7 C    1.651     9 C    1.167    29 H    0.972
     9   6 C    3.922 --    11 C    1.354    10 N    1.250     8 C    1.167
    10   7 N    3.382 --     6 C    1.287     9 C    1.250     1 Cu   0.533
    11   6 C    3.932 --     9 C    1.354    12 C    1.352    30 H    0.964
    12   6 C    3.928 --    11 C    1.352    16 N    1.263    13 C    1.158
    13   6 C    3.950 --    14 C    1.666    12 C    1.158    31 H    0.972
    14   6 C    3.948 --    13 C    1.666    15 C    1.158    32 H    0.972
    15   6 C    3.929 --    17 C    1.351    16 N    1.265    14 C    1.158
    16   7 N    3.378 --    15 C    1.265    12 C    1.263     1 Cu   0.534
    17   6 C    3.927 --    18 C    1.351    15 C    1.351    33 H    0.964
    18   6 C    3.929 --    17 C    1.351    22 N    1.265    19 C    1.158
    19   6 C    3.948 --    20 C    1.666    18 C    1.158    34 H    0.972
    20   6 C    3.950 --    19 C    1.666    21 C    1.158    35 H    0.972
    21   6 C    3.928 --    23 C    1.352    22 N    1.263    20 C    1.158
    22   7 N    3.378 --    18 C    1.265    21 C    1.263     1 Cu   0.534
    23   6 C    3.932 --    24 C    1.354    21 C    1.352    36 H    0.964
    24   6 C    3.922 --    23 C    1.354    25 N    1.250     2 C    1.166
    25   7 N    3.382 --     4 C    1.287    24 C    1.250     1 Cu   0.533
    26   1 H    0.998 --     2 C    0.972
    27   1 H    0.998 --     3 C    0.968
    28   1 H    0.998 --     7 C    0.968
    29   1 H    0.998 --     8 C    0.972
    30   1 H    0.996 --    11 C    0.964
    31   1 H    0.998 --    13 C    0.972
    32   1 H    0.998 --    14 C    0.972
    33   1 H    0.997 --    17 C    0.964
    34   1 H    0.998 --    19 C    0.972
    35   1 H    0.998 --    20 C    0.972
    36   1 H    0.996 --    23 C    0.964
    37  29 Cu   2.328 --    52 N    0.534    58 N    0.534    46 N    0.532
                            61 N    0.532
    38   6 C    3.947 --    39 C    1.651    60 C    1.166    62 H    0.972
    39   6 C    3.950 --    38 C    1.651    40 C    1.174    63 H    0.968
    40   6 C    3.914 --    61 N    1.287    41 C    1.256    39 C    1.174
    41   6 C    3.942 --    40 C    1.256    42 C    1.255    76 C    1.170
    42   6 C    3.915 --    46 N    1.287    41 C    1.255    43 C    1.174
    43   6 C    3.950 --    44 C    1.651    42 C    1.174    64 H    0.968
    44   6 C    3.946 --    43 C    1.651    45 C    1.166    65 H    0.972
    45   6 C    3.922 --    47 C    1.354    46 N    1.251    44 C    1.166
    46   7 N    3.382 --    42 C    1.287    45 C    1.251    37 Cu   0.532
    47   6 C    3.932 --    45 C    1.354    48 C    1.352    66 H    0.964
    48   6 C    3.928 --    47 C    1.352    52 N    1.263    49 C    1.158
    49   6 C    3.950 --    50 C    1.666    48 C    1.158    67 H    0.972
    50   6 C    3.948 --    49 C    1.666    51 C    1.158    68 H    0.972
    51   6 C    3.929 --    53 C    1.352    52 N    1.265    50 C    1.158
    52   7 N    3.378 --    51 C    1.265    48 C    1.263    37 Cu   0.534
    53   6 C    3.927 --    51 C    1.352    54 C    1.351    69 H    0.964
    54   6 C    3.929 --    53 C    1.351    58 N    1.266    55 C    1.158
    55   6 C    3.948 --    56 C    1.666    54 C    1.158    70 H    0.972
    56   6 C    3.950 --    55 C    1.666    57 C    1.158    71 H    0.972
    57   6 C    3.928 --    59 C    1.352    58 N    1.263    56 C    1.158
    58   7 N    3.378 --    54 C    1.266    57 C    1.263    37 Cu   0.534
    59   6 C    3.932 --    60 C    1.354    57 C    1.352    72 H    0.964
    60   6 C    3.922 --    59 C    1.354    61 N    1.251    38 C    1.166
    61   7 N    3.382 --    40 C    1.287    60 C    1.251    37 Cu   0.532
    62   1 H    0.998 --    38 C    0.972
    63   1 H    0.998 --    39 C    0.968
    64   1 H    0.998 --    43 C    0.968
    65   1 H    0.998 --    44 C    0.972
    66   1 H    0.996 --    47 C    0.964
    67   1 H    0.998 --    49 C    0.972
    68   1 H    0.998 --    50 C    0.972
    69   1 H    0.997 --    53 C    0.964
    70   1 H    0.998 --    55 C    0.972
    71   1 H    0.998 --    56 C    0.972
    72   1 H    0.996 --    59 C    0.964
    73   6 C    3.924 --    74 C    2.576     5 C    1.171
    74   6 C    3.926 --    73 C    2.576    81 C    1.172
    75   6 C    3.926 --    76 C    2.576    93 C    1.172
    76   6 C    3.923 --    75 C    2.576    41 C    1.170
    77  29 Cu   2.303 --    86 N    0.528   101 N    0.528    98 N    0.528
                            92 N    0.528
    78   6 C    3.948 --    79 C    1.650   100 C    1.167   102 H    0.972
    79   6 C    3.949 --    78 C    1.650    80 C    1.174   103 H    0.968
    80   6 C    3.915 --   101 N    1.289    81 C    1.253    79 C    1.174
    81   6 C    3.931 --    80 C    1.253    82 C    1.253    74 C    1.172
    82   6 C    3.915 --    86 N    1.289    81 C    1.253    83 C    1.174
    83   6 C    3.949 --    84 C    1.650    82 C    1.174   104 H    0.968
    84   6 C    3.948 --    83 C    1.650    85 C    1.167   105 H    0.972
    85   6 C    3.921 --    87 C    1.354    86 N    1.250    84 C    1.167
    86   7 N    3.373 --    82 C    1.289    85 C    1.250    77 Cu   0.528
    87   6 C    3.926 --    85 C    1.354    88 C    1.354   106 H    0.964
    88   6 C    3.921 --    87 C    1.354    92 N    1.250    89 C    1.167
    89   6 C    3.948 --    90 C    1.651    88 C    1.167   107 H    0.972
    90   6 C    3.949 --    89 C    1.651    91 C    1.174   108 H    0.968
    91   6 C    3.915 --    92 N    1.289    93 C    1.254    90 C    1.174
    92   7 N    3.373 --    91 C    1.289    88 C    1.250    77 Cu   0.528
    93   6 C    3.931 --    91 C    1.254    94 C    1.253    75 C    1.172
    94   6 C    3.915 --    98 N    1.290    93 C    1.253    95 C    1.174
    95   6 C    3.949 --    96 C    1.650    94 C    1.174   109 H    0.968
    96   6 C    3.948 --    95 C    1.650    97 C    1.167   110 H    0.972
    97   6 C    3.921 --    99 C    1.354    98 N    1.249    96 C    1.167
    98   7 N    3.373 --    94 C    1.290    97 C    1.249    77 Cu   0.528
    99   6 C    3.926 --    97 C    1.354   100 C    1.354   111 H    0.964
   100   6 C    3.921 --    99 C    1.354   101 N    1.250    78 C    1.167
   101   7 N    3.373 --    80 C    1.289   100 C    1.250    77 Cu   0.528
   102   1 H    0.998 --    78 C    0.972
   103   1 H    0.998 --    79 C    0.968
   104   1 H    0.998 --    83 C    0.968
   105   1 H    0.998 --    84 C    0.972
   106   1 H    0.996 --    87 C    0.964
   107   1 H    0.998 --    89 C    0.972
   108   1 H    0.998 --    90 C    0.968
   109   1 H    0.998 --    95 C    0.968
   110   1 H    0.998 --    96 C    0.972
   111   1 H    0.996 --    99 C    0.964
 ---------------------------------------------------------------------------

molecular dipole:
                 x           y           z       tot (Debye)
 q only:       -0.006       0.001       0.009
   full:       -0.006       0.001       0.016       0.045

 projected vibrational frequencies (cm⁻¹)
eigval :       -0.00    -0.00    -0.00     0.00     0.00     0.00
eigval :        1.31     4.26     5.77    10.54    11.22    13.85
eigval :       25.46    30.34    36.82    40.96    42.26    43.00
eigval :       52.00    52.29    65.69    68.35    74.89    83.99
eigval :       87.22    95.25    99.77   114.78   118.06   122.86
eigval :      125.18   127.45   133.75   147.04   165.92   166.18
eigval :      166.84   179.48   183.84   184.43   185.02   187.19
eigval :      189.23   204.58   204.87   206.05   208.36   209.59
eigval :      211.04   211.28   215.89   217.10   218.30   219.03
eigval :      220.18   234.17   247.93   252.90   259.40   260.51
eigval :      262.33   269.09   310.34   312.17   320.92   321.78
eigval :      322.94   323.57   331.44   334.53   344.17   355.03
eigval :      360.98   363.65   368.89   371.83   375.44   375.74
eigval :      378.00   388.40   391.38   391.50   392.08   393.33
eigval :      393.64   393.76   403.42   410.14   426.84   426.92
eigval :      427.32   428.71   430.73   456.71   462.05   462.21
eigval :      466.38   498.95   500.97   513.49   516.25   592.94
eigval :      606.02   611.54   612.26   613.02   616.34   618.75
eigval :      619.03   622.38   622.41   623.38   640.22   642.44
eigval :      642.45   643.34   643.36   650.03   651.02   651.06
eigval :      651.62   657.30   657.36   666.66   668.49   670.71
eigval :      672.68   718.71   720.31   723.34   723.36   752.75
eigval :      756.72   758.08   759.69   761.35   763.97   766.14
eigval :      767.03   776.76   776.82   778.92   778.95   791.72
eigval :      792.27   797.69   797.71   801.60   803.83   804.41
eigval :      804.46   805.11   806.37   810.74   811.25   817.15
eigval :      817.36   818.81   820.08   826.59   826.75   832.61
eigval :      833.59   835.16   836.10   836.85   837.55   841.27
eigval :      841.33   841.51   842.91   843.11   843.19   844.66
eigval :      844.85   847.02   848.74   851.22   851.85   887.94
eigval :      889.82   957.22   961.38  1000.44  1000.92  1003.19
eigval :     1003.36  1005.34  1010.25  1023.50  1024.29  1025.88
eigval :     1027.97  1029.29  1034.43  1034.46  1035.48  1040.28
eigval :     1040.48  1040.68  1041.76  1044.61  1044.74  1059.97
eigval :     1061.86  1063.37  1064.66  1067.05  1067.23  1070.70
eigval :     1072.32  1073.09  1074.46  1077.02  1078.38  1091.61
eigval :     1100.94  1140.63  1148.25  1154.51  1154.58  1166.85
eigval :     1169.06  1169.74  1175.16  1175.34  1186.15  1193.60
eigval :     1215.92  1227.03  1227.38  1240.13  1241.19  1243.06
eigval :     1275.05  1288.31  1288.84  1293.12  1297.25  1299.18
eigval :     1301.69  1301.73  1304.68  1316.95  1319.28  1319.42
eigval :     1328.75  1329.23  1332.18  1333.24  1334.97  1337.75
eigval :     1344.86  1344.95  1346.39  1349.20  1353.25  1358.72
eigval :     1367.28  1367.73  1367.78  1371.32  1374.31  1447.14
eigval :     1447.79  1452.09  1453.80  1453.89  1465.98  1471.79
eigval :     1484.27  1488.20  1500.77  1501.52  1505.11  1506.48
eigval :     1510.14  1510.25  1515.67  1521.92  1522.70  1523.30
eigval :     1525.31  1530.40  1534.21  1537.36  1537.44  1542.25
eigval :     1547.84  1551.83  1553.37  1559.94  1559.97  1569.38
eigval :     1570.24  1571.86  1596.92  1603.60  1603.65  2258.96
eigval :     2262.51  3082.48  3082.72  3083.85  3083.89  3084.51
eigval :     3084.80  3086.60  3086.78  3147.45  3147.72  3148.18
eigval :     3148.73  3152.58  3152.90  3153.17  3153.25  3153.39
eigval :     3153.45  3153.50  3153.63  3161.25  3161.48  3162.07
eigval :     3162.66  3167.76  3168.56  3168.72  3169.14  3169.53
eigval :     3170.30  3170.49  3170.64

   temp. (K)  partition function   enthalpy   heat capacity  entropy
                                   cal/mol     cal/K/mol   cal/K/mol   J/K/mol
 298.15  VIB  0.487E+31            37590.443    245.158    236.875
         ROT  0.559E+09              888.752      2.981     43.007
         INT  0.272E+40            38479.195    248.139    279.882
         TR   0.382E+29             1481.254      4.968     47.002
         TOT                       39960.4494   253.1068   326.8837  1367.6813

       T/K    H(0)-H(T)+PV         H(T)/Eh          T*S/Eh         G(T)/Eh
   ------------------------------------------------------------------------
    298.15    0.636810E-01    0.836848E+00    0.155313E+00    0.681535E+00
   ------------------------------------------------------------------------

         :::::::::::::::::::::::::::::::::::::::::::::::::::::
         ::                  THERMODYNAMIC                  ::
         :::::::::::::::::::::::::::::::::::::::::::::::::::::
         :: total free energy        -199.571825617227 Eh   ::
         ::.................................................::
         :: total energy             -200.253360879579 Eh   ::
         :: zero point energy           0.773167218484 Eh   ::
         :: G(RRHO) w/o ZPVE           -0.091631956133 Eh   ::
         :: G(RRHO) contrib.            0.681535262352 Eh   ::
         :::::::::::::::::::::::::::::::::::::::::::::::::::::

           -------------------------------------------------
          | TOTAL ENERGY             -200.253360879579 Eh   |
          | TOTAL ENTHALPY           -199.416512631505 Eh   |
          | TOTAL FREE ENERGY        -199.571825617227 Eh   |
          | GRADIENT NORM               0.000766470966 Eh/α |
          | HOMO-LUMO GAP               0.000571011011 eV   |
           -------------------------------------------------

 * finished run on 2021/11/19 at 11:17:17.036
