   * xtb version 6.4.1 (bd6e46d) compiled by 'conda@4901f00b25ba' on 2021-06-10
          program call               : /home/jeff/miniconda3/bin/xtb input_structure_1.xyz --gfn 2 --ohess normal --parallel 1 --etemp 300 --chrg 0 --uhf 0 -I det_control.in
          number of atoms            :                    80
          number of electrons        :                   250
          charge                     :                     0
          spin                       :                   0.0

   ID    Z sym.   atoms
    1    6 C      1-8, 10-14, 16-20, 22, 23, 38-51, 53-57, 59-63, 65, 66
    2    7 N      9, 15, 21, 24, 52, 58, 64, 67
    3    1 H      25-37, 68-80

          :  Hamiltonian                  GFN2-xTB          :
 * total energy  :  -134.6806827 Eh     change       -0.3113229E-08 Eh
 * total energy  :  -134.7807050 Eh     change       -0.1000223E+00 Eh
 * total energy  :  -134.8254355 Eh     change       -0.4473050E-01 Eh
 * total energy  :  -134.8480172 Eh     change       -0.2258171E-01 Eh
 * total energy  :  -134.8686365 Eh     change       -0.2061934E-01 Eh
 * total energy  :  -134.8855942 Eh     change       -0.1695766E-01 Eh
 * total energy  :  -134.8995156 Eh     change       -0.1392135E-01 Eh
 * total energy  :  -134.9100248 Eh     change       -0.1050920E-01 Eh
 * total energy  :  -134.9181572 Eh     change       -0.8132410E-02 Eh
 * total energy  :  -134.9251168 Eh     change       -0.6959637E-02 Eh
 * total energy  :  -134.9546094 Eh     change       -0.2545120E-04 Eh
 * total energy  :  -134.9546302 Eh     change       -0.2079702E-04 Eh
 * total energy  :  -134.9546522 Eh     change       -0.2195759E-04 Eh
 * total energy  :  -134.9546676 Eh     change       -0.1549664E-04 Eh
 * total energy  :  -134.9546733 Eh     change       -0.5697738E-05 Eh
 * total energy  :  -134.9546507 Eh     change        0.2269453E-04 Eh
 * total energy  :  -134.9546785 Eh     change       -0.2780629E-04 Eh
 * total energy  :  -134.9546847 Eh     change       -0.6284151E-05 Eh
 * total energy  :  -134.9546880 Eh     change       -0.3297011E-05 Eh
   *** GEOMETRY OPTIMIZATION CONVERGED AFTER 48 ITERATIONS ***

 final structure:
================
80
 xtb: 6.4.1 (bd6e46d)
C         5.38814789648212    3.38895589572382    0.97605592288220
C         4.45798936652428    2.47678734850273    0.63282136470938
C         5.19188501453601    1.28288089641972    0.25270712389699
C         4.56525500713302    0.09415649486134   -0.17034277973032
C         5.25130477320169   -1.06770108722297   -0.55952780992290
C         4.68661227832215   -2.28915582558554   -1.01501192402064
C         5.71792019929913   -3.14042642117473   -1.28928163598372
C         6.93438746082909   -2.45840060688008   -1.00432424548381
N         6.60009617174181   -1.21190209295377   -0.56942533188716
C         8.21759657716210   -2.96831100238266   -1.13587243881116
C         9.41403155600039   -2.32576634586575   -0.84918800435245
C        10.70994839948259   -2.96908192284840   -1.01271202045018
C        11.63015646560794   -2.06147817010667   -0.63776150359294
C        10.88957679983209   -0.87048463667108   -0.25094996481512
N         9.56131606616681   -1.06574266438356   -0.39043272392322
C        11.49931460004636    0.29527024939461    0.19529447676355
C        10.83849582289269    1.45568598550346    0.56757079330022
C        11.40408943974222    2.68005037430207    1.02554691082438
C        10.37740042821473    3.54327399917496    1.26984073084062
C         9.15795902152822    2.86890053780108    0.96897525237243
N         9.48854341543278    1.61861749818596    0.55141725773011
C         7.87538729365972    3.38419565950436    1.08166632582141
C         6.67779758272562    2.74101921708430    0.80528865464776
N         6.51771375927843    1.47062595564617    0.36431225686840
H         5.25182345722149    4.39832373130433    1.31385165762387
H         3.38897776219223    2.56720251782323    0.62417329968791
H         3.63523835768565   -2.47649861098330   -1.11597206530683
H         5.65274231355769   -4.14712733312053   -1.65373241837992
H         7.24802962189367   -0.48504936386428   -0.28827172349114
H         8.29076427815417   -3.98457918629021   -1.49787406197343
H        10.85255876355554   -3.97289508362594   -1.36475866097578
H        12.69938637601695   -2.15051647917051   -0.61255166138612
H        12.57806390867935    0.29904152326355    0.25503859628186
H        12.45442773641709    2.86148350318978    1.14634254408390
H        10.44364737036754    4.55327887349112    1.62550642393519
H         8.84307796879236    0.89294475136492    0.26367481792829
H         7.80076902675859    4.40510510229349    1.43035779691109
C         3.16885270740733    0.05974418675878   -0.20016708772163
C         1.94934947976040    0.02874965670114   -0.20522947817354
C         0.61302662424708   -0.00196106100700   -0.20352952906090
C        -0.61065990618837   -0.03422490752069   -0.18923664707591
C        -1.94697055019506   -0.06232527843830   -0.17387532595034
C        -3.16631755639186   -0.09164403628080   -0.15086880279496
C       -10.68207981341676    2.56486499516143   -1.92403438341323
C       -11.61212795640235    1.77085442918224   -1.36218013843028
C       -10.88177831728590    0.73553177441480   -0.64714834981104
C       -11.50320856026596   -0.27940231968962    0.06957498777710
C       -10.85268456868502   -1.28900721126613    0.76184008409397
C       -11.43112485720783   -2.35401514103554    1.51020485751613
C       -10.41165597449274   -3.10852865862209    2.01041775812153
C        -9.18394211408542   -2.52437907277756    1.58149799387557
N        -9.50255398039239   -1.43361965103376    0.83612262372949
C        -7.90498422164691   -2.97960589801562    1.86470487026211
C        -6.70030255296420   -2.42324745661204    1.46014412890653
C        -5.41554746134979   -2.99640454166921    1.82498562111717
C        -4.47685977785531   -2.20280528882947    1.27344477038061
C        -5.20064341295636   -1.15399529174769    0.57724102460809
N        -6.52886362408139   -1.31248440448668    0.70469260876453
C        -4.56312722539741   -0.11369955373297   -0.12679707152125
C        -5.23819291532856    0.91024875220480   -0.81096528027056
C        -4.66060458118147    1.98258538693242   -1.54231716027165
C        -5.68349722546147    2.73001658074079   -2.05069528529620
C        -6.90763267819191    2.13089024273940   -1.64009123128573
N        -6.58610968708030    1.03795172113633   -0.89388213705086
C        -8.18664006065159    2.57410980166740   -1.94266797924407
C        -9.39062141182502    2.00844701922542   -1.54660149483475
N        -9.55000603618428    0.90900278940563   -0.78128262774828
H       -10.81539932530281    3.43904072109937   -2.53226888844967
H       -12.68196564398250    1.84484134373155   -1.40456062449532
H       -12.58346234029107   -0.28302995900820    0.08831903313809
H       -12.48468870931235   -2.50909882828453    1.63939715782727
H       -10.48780640549561   -3.98809584034947    2.61998735212598
H        -8.84882144854407   -0.80325349360665    0.38749522916452
H        -7.83991860577991   -3.87158582522541    2.47260275648194
H        -5.28792782300506   -3.88036468797037    2.41984453776883
H        -3.40798211497017   -2.28685313785967    1.31294168267046
H        -3.60670052361607    2.14717100009969   -1.65584824434437
H        -5.60788892778504    3.61391257457885   -2.65368309456027
H        -7.24255296352559    0.40028093222405   -0.45847295077442
H        -8.24981028982473    3.46270635536667   -2.55553549837513

          :  Hamiltonian                  GFN2-xTB          :
         :: gradient norm              0.000463492474 Eh/a0 ::
         :: HOMO-LUMO gap              1.205885289639 eV    ::
         :: SCC energy              -137.523134298812 Eh    ::
         :: -> dispersion             -0.106432134252 Eh    ::
         :: repulsion energy           2.569579112789 Eh    ::

    * Orbital Energies and Occupations

         #    Occupation            Energy/Eh            Energy/eV
      -------------------------------------------------------------
         1        2.0000           -0.6838256             -18.6078
       ...           ...                  ...                  ...
       113        2.0000           -0.3923050             -10.6752
       114        2.0000           -0.3879153             -10.5557
       115        2.0000           -0.3878384             -10.5536
       116        2.0000           -0.3854495             -10.4886
       117        2.0000           -0.3813395             -10.3768
       118        2.0000           -0.3718804             -10.1194
       119        2.0000           -0.3718171             -10.1177
       120        2.0000           -0.3708869             -10.0923
       121        2.0000           -0.3708853             -10.0923
       122        2.0000           -0.3684058             -10.0248
       123        2.0000           -0.3683420             -10.0231
       124        2.0000           -0.3574327              -9.7262
       125        2.0000           -0.3508601              -9.5474 (HOMO)
       126                         -0.3065447              -8.3415 (LUMO)
       127                         -0.2997504              -8.1566
       128                         -0.2972156              -8.0876
       129                         -0.2967812              -8.0758
       130                         -0.2646570              -7.2017
       131                         -0.2611962              -7.1075
       132                         -0.2423437              -6.5945
       133                         -0.2287363              -6.2242
       134                         -0.1898337              -5.1656
       135                         -0.1893397              -5.1522
       136                         -0.1728865              -4.7045
       ...                                ...                  ...
       242                          1.7168344              46.7174
      -------------------------------------------------------------
                  HL-Gap            0.0443155 Eh            1.2059 eV

     #   Z          covCN         q      C6AA      α(0)
     1   6 C        3.016    -0.055    29.336     8.885
     2   6 C        3.009    -0.053    29.299     8.879
     3   6 C        3.196     0.087    25.567     8.243
     4   6 C        2.952     0.011    27.759     8.642
     5   6 C        3.097     0.064    26.454     8.429
     6   6 C        3.026    -0.050    29.210     8.865
     7   6 C        3.034    -0.052    29.252     8.871
     8   6 C        3.073     0.064    26.482     8.438
     9   7 N        2.785    -0.082    22.824     7.096
    10   6 C        2.899    -0.055    29.372     8.886
    11   6 C        3.170     0.087    25.717     8.285
    12   6 C        3.012    -0.054    29.316     8.882
    13   6 C        3.009    -0.054    29.318     8.882
    14   6 C        3.174     0.086    25.707     8.281
    15   7 N        1.870    -0.321    29.177     8.007
    16   6 C        2.899    -0.057    29.413     8.892
    17   6 C        3.074     0.065    26.470     8.436
    18   6 C        3.025    -0.051    29.239     8.870
    19   6 C        3.031    -0.051    29.230     8.868
    20   6 C        3.068     0.066    26.461     8.435
    21   7 N        2.787    -0.081    22.817     7.094
    22   6 C        2.899    -0.055    29.370     8.886
    23   6 C        3.175     0.086    25.719     8.282
    24   7 N        1.870    -0.325    29.283     8.021
    25   1 H        0.926     0.019     2.755     2.595
    26   1 H        0.926     0.021     2.716     2.577
    27   1 H        0.926     0.043     2.406     2.426
    28   1 H        0.926     0.041     2.432     2.439
    29   1 H        0.860     0.214     1.037     1.595
    30   1 H        0.925     0.047     2.360     2.403
    31   1 H        0.926     0.019     2.743     2.590
    32   1 H        0.926     0.019     2.742     2.590
    33   1 H        0.926     0.046     2.371     2.408
    34   1 H        0.926     0.042     2.425     2.435
    35   1 H        0.926     0.042     2.425     2.435
    36   1 H        0.860     0.214     1.035     1.594
    37   1 H        0.925     0.047     2.359     2.402
    38   6 C        1.995    -0.021    31.590     9.077
    39   6 C        1.963    -0.012    31.385     9.047
    40   6 C        1.964    -0.004    31.165     9.015
    41   6 C        1.964    -0.004    31.165     9.015
    42   6 C        1.963    -0.012    31.386     9.047
    43   6 C        1.996    -0.021    31.589     9.077
    44   6 C        3.012    -0.054    29.316     8.882
    45   6 C        3.010    -0.054    29.318     8.882
    46   6 C        3.174     0.086    25.707     8.281
    47   6 C        2.899    -0.057    29.413     8.892
    48   6 C        3.074     0.065    26.470     8.436
    49   6 C        3.025    -0.051    29.239     8.870
    50   6 C        3.031    -0.051    29.230     8.868
    51   6 C        3.068     0.066    26.461     8.435
    52   7 N        2.787    -0.081    22.817     7.094
    53   6 C        2.899    -0.055    29.370     8.886
    54   6 C        3.175     0.086    25.719     8.282
    55   6 C        3.016    -0.055    29.336     8.885
    56   6 C        3.009    -0.053    29.297     8.879
    57   6 C        3.196     0.087    25.567     8.243
    58   7 N        1.870    -0.325    29.285     8.022
    59   6 C        2.952     0.011    27.759     8.642
    60   6 C        3.097     0.064    26.454     8.429
    61   6 C        3.026    -0.050    29.212     8.865
    62   6 C        3.034    -0.052    29.252     8.871
    63   6 C        3.073     0.064    26.483     8.438
    64   7 N        2.785    -0.081    22.822     7.095
    65   6 C        2.899    -0.055    29.372     8.886
    66   6 C        3.171     0.087    25.717     8.285
    67   7 N        1.870    -0.321    29.178     8.007
    68   1 H        0.926     0.019     2.743     2.590
    69   1 H        0.926     0.019     2.742     2.590
    70   1 H        0.926     0.046     2.370     2.408
    71   1 H        0.926     0.042     2.425     2.435
    72   1 H        0.926     0.042     2.425     2.435
    73   1 H        0.860     0.214     1.036     1.594
    74   1 H        0.925     0.047     2.359     2.402
    75   1 H        0.926     0.019     2.755     2.596
    76   1 H        0.926     0.021     2.716     2.577
    77   1 H        0.926     0.043     2.406     2.426
    78   1 H        0.926     0.041     2.431     2.438
    79   1 H        0.860     0.214     1.037     1.595
    80   1 H        0.925     0.047     2.360     2.403

Wiberg/Mayer (AO) data.
largest (>0.10) Wiberg bond orders for each atom

     #   Z sym  total        # sym  WBO       # sym  WBO       # sym  WBO
 ---------------------------------------------------------------------------
     1   6 C    3.960 --     2 C    1.717    23 C    1.115    25 H    0.973
     2   6 C    3.961 --     1 C    1.717     3 C    1.122    26 H    0.971
     3   6 C    3.917 --    24 N    1.359     4 C    1.246     2 C    1.122
     4   6 C    3.942 --     5 C    1.250     3 C    1.246    38 C    1.187
     5   6 C    3.902 --     4 C    1.250     6 C    1.237     9 N    1.225
     6   6 C    3.956 --     7 C    1.593     5 C    1.237    27 H    0.972
     7   6 C    3.949 --     6 C    1.593     8 C    1.224    28 H    0.973
     8   6 C    3.918 --    10 C    1.344     7 C    1.224     9 N    1.203
     9   7 N    3.590 --     5 C    1.225     8 C    1.203    29 H    0.900
    10   6 C    3.922 --    11 C    1.357     8 C    1.344    30 H    0.964
    11   6 C    3.939 --    10 C    1.357    15 N    1.324    12 C    1.107
    12   6 C    3.963 --    13 C    1.731    11 C    1.107    31 H    0.973
    13   6 C    3.962 --    12 C    1.731    14 C    1.109    32 H    0.973
    14   6 C    3.938 --    16 C    1.354    15 N    1.325    13 C    1.109
    15   7 N    3.003 --    14 C    1.325    11 C    1.324
    16   6 C    3.924 --    14 C    1.354    17 C    1.347    33 H    0.965
    17   6 C    3.921 --    16 C    1.347    18 C    1.215    21 N    1.210
    18   6 C    3.950 --    19 C    1.609    17 C    1.215    34 H    0.973
    19   6 C    3.953 --    18 C    1.609    20 C    1.215    35 H    0.973
    20   6 C    3.916 --    22 C    1.343    19 C    1.215    21 N    1.211
    21   7 N    3.587 --    20 C    1.211    17 C    1.210    36 H    0.900
    22   6 C    3.938 --    23 C    1.365    20 C    1.343    37 H    0.964
    23   6 C    3.925 --    22 C    1.365    24 N    1.301     1 C    1.115
    24   7 N    3.010 --     3 C    1.359    23 C    1.301
    25   1 H    0.999 --     1 C    0.973
    26   1 H    0.999 --     2 C    0.971
    27   1 H    0.998 --     6 C    0.972
    28   1 H    0.998 --     7 C    0.973
    29   1 H    0.954 --     9 N    0.900
    30   1 H    0.997 --    10 C    0.964
    31   1 H    0.999 --    12 C    0.973
    32   1 H    0.999 --    13 C    0.973
    33   1 H    0.997 --    16 C    0.965
    34   1 H    0.998 --    18 C    0.973
    35   1 H    0.998 --    19 C    0.973
    36   1 H    0.954 --    21 N    0.900
    37   1 H    0.997 --    22 C    0.964
    38   6 C    3.882 --    39 C    2.443     4 C    1.187    41 C    0.192
    39   6 C    3.924 --    38 C    2.443    40 C    1.329
    40   6 C    3.916 --    41 C    2.359    39 C    1.329    43 C    0.192
    41   6 C    3.916 --    40 C    2.359    42 C    1.329    38 C    0.192
    42   6 C    3.924 --    43 C    2.443    41 C    1.329
    43   6 C    3.882 --    42 C    2.443    59 C    1.187    40 C    0.192
    44   6 C    3.963 --    45 C    1.731    66 C    1.107    68 H    0.973
    45   6 C    3.962 --    44 C    1.731    46 C    1.109    69 H    0.973
    46   6 C    3.938 --    47 C    1.354    67 N    1.325    45 C    1.109
    47   6 C    3.925 --    46 C    1.354    48 C    1.347    70 H    0.965
    48   6 C    3.921 --    47 C    1.347    49 C    1.215    52 N    1.210
    49   6 C    3.950 --    50 C    1.609    48 C    1.215    71 H    0.973
    50   6 C    3.953 --    49 C    1.609    51 C    1.214    72 H    0.973
    51   6 C    3.916 --    53 C    1.343    50 C    1.214    52 N    1.211
    52   7 N    3.587 --    51 C    1.211    48 C    1.210    73 H    0.900
    53   6 C    3.938 --    54 C    1.365    51 C    1.343    74 H    0.964
    54   6 C    3.925 --    53 C    1.365    58 N    1.301    55 C    1.115
    55   6 C    3.960 --    56 C    1.717    54 C    1.115    75 H    0.973
    56   6 C    3.961 --    55 C    1.717    57 C    1.121    76 H    0.971
    57   6 C    3.917 --    58 N    1.359    59 C    1.246    56 C    1.121
    58   7 N    3.010 --    57 C    1.359    54 C    1.301
    59   6 C    3.942 --    60 C    1.250    57 C    1.246    43 C    1.187
    60   6 C    3.902 --    59 C    1.250    61 C    1.237    64 N    1.225
    61   6 C    3.956 --    62 C    1.593    60 C    1.237    77 H    0.972
    62   6 C    3.949 --    61 C    1.593    63 C    1.224    78 H    0.973
    63   6 C    3.918 --    65 C    1.344    62 C    1.224    64 N    1.202
    64   7 N    3.590 --    60 C    1.225    63 C    1.202    79 H    0.900
    65   6 C    3.923 --    66 C    1.357    63 C    1.344    80 H    0.964
    66   6 C    3.939 --    65 C    1.357    67 N    1.324    44 C    1.107
    67   7 N    3.003 --    46 C    1.325    66 C    1.324
    68   1 H    0.999 --    44 C    0.973
    69   1 H    0.999 --    45 C    0.973
    70   1 H    0.997 --    47 C    0.965
    71   1 H    0.998 --    49 C    0.973
    72   1 H    0.998 --    50 C    0.973
    73   1 H    0.954 --    52 N    0.900
    74   1 H    0.997 --    53 C    0.964
    75   1 H    0.999 --    55 C    0.973
    76   1 H    0.999 --    56 C    0.971
    77   1 H    0.998 --    61 C    0.972
    78   1 H    0.998 --    62 C    0.973
    79   1 H    0.954 --    64 N    0.900
    80   1 H    0.997 --    65 C    0.964
 ---------------------------------------------------------------------------

molecular dipole:
                 x           y           z       tot (Debye)
 q only:       -0.001       0.004       0.021
   full:       -0.001       0.001       0.029       0.073

 projected vibrational frequencies (cm⁻¹)
eigval :       -0.00    -0.00     0.00     0.00     0.00     0.00
eigval :       -1.91     6.39     6.85    17.42    20.99    41.31
eigval :       42.13    42.47    43.84    56.04    65.44    82.45
eigval :       86.57    95.35    96.22   112.80   115.87   116.93
eigval :      119.53   141.84   142.18   155.68   163.77   172.09
eigval :      183.34   183.44   199.48   202.39   203.28   207.94
eigval :      254.80   265.22   265.28   268.20   274.96   276.16
eigval :      289.12   296.14   299.38   317.31   340.11   341.18
eigval :      345.42   348.92   350.84   353.41   357.09   362.03
eigval :      362.20   363.89   384.25   390.98   394.00   394.03
eigval :      418.60   421.65   430.20   430.29   439.26   441.21
eigval :      454.73   503.21   503.52   600.59   600.67   605.19
eigval :      605.23   627.20   627.24   636.74   636.75   647.08
eigval :      647.11   650.92   651.02   653.86   653.89   660.15
eigval :      660.58   668.29   668.44   701.26   713.81   716.99
eigval :      722.73   725.59   730.40   731.07   741.92   743.12
eigval :      748.13   749.63   760.71   761.95   770.67   770.75
eigval :      789.17   789.74   798.44   798.47   806.18   806.25
eigval :      812.14   812.21   819.30   819.36   827.91   827.95
eigval :      836.43   836.47   839.23   839.26   842.28   842.30
eigval :      842.86   842.86   852.51   852.54   853.86   854.00
eigval :      896.46   949.19   960.17   960.39   972.99   973.39
eigval :      976.86   977.77   999.69   999.79  1006.53  1010.01
eigval :     1015.97  1016.46  1031.24  1031.60  1045.91  1063.41
eigval :     1063.54  1066.23  1066.38  1069.49  1069.80  1075.08
eigval :     1075.17  1095.76  1118.38  1122.47  1125.76  1140.32
eigval :     1150.95  1161.18  1170.06  1181.01  1183.51  1184.32
eigval :     1188.11  1205.37  1207.66  1233.25  1233.88  1254.94
eigval :     1256.95  1284.72  1285.58  1293.03  1305.70  1305.75
eigval :     1338.49  1338.88  1347.16  1347.28  1362.13  1366.22
eigval :     1375.00  1375.28  1383.21  1383.25  1388.12  1388.32
eigval :     1392.50  1397.60  1444.89  1458.53  1467.69  1478.29
eigval :     1481.65  1491.96  1503.62  1505.53  1506.35  1508.96
eigval :     1509.86  1514.20  1514.35  1549.64  1550.24  1555.51
eigval :     1555.78  1560.54  1560.69  1585.36  1585.55  1594.84
eigval :     1594.94  2161.63  2202.46  2262.29  3076.89  3076.97
eigval :     3077.77  3077.91  3086.41  3086.52  3140.04  3140.06
eigval :     3144.60  3144.83  3155.20  3155.40  3156.37  3156.48
eigval :     3159.49  3159.69  3160.95  3161.34  3168.89  3169.08
eigval :     3172.01  3172.16  3348.24  3348.39  3356.79  3357.24

   temp. (K)  partition function   enthalpy   heat capacity  entropy
                                   cal/mol     cal/K/mol   cal/K/mol   J/K/mol
 298.15  VIB  0.116E+22            25687.542    169.085    162.310
         ROT  0.215E+09              888.752      2.981     41.109
         INT  0.249E+30            26576.294    172.066    203.419
         TR   0.176E+29             1481.254      4.968     45.458
         TOT                       28057.5480   177.0344   248.8771  1041.3019

       T/K    H(0)-H(T)+PV         H(T)/Eh          T*S/Eh         G(T)/Eh
   ------------------------------------------------------------------------
    298.15    0.447125E-01    0.623038E+00    0.118250E+00    0.504789E+00
   ------------------------------------------------------------------------

         :::::::::::::::::::::::::::::::::::::::::::::::::::::
         ::                  THERMODYNAMIC                  ::
         :::::::::::::::::::::::::::::::::::::::::::::::::::::
         :: total free energy        -134.449899257980 Eh   ::
         ::.................................................::
         :: total energy             -134.954688041347 Eh   ::
         :: zero point energy           0.578325787330 Eh   ::
         :: G(RRHO) w/o ZPVE           -0.073537003963 Eh   ::
         :: G(RRHO) contrib.            0.504788783367 Eh   ::
         :::::::::::::::::::::::::::::::::::::::::::::::::::::

           -------------------------------------------------
          | TOTAL ENERGY             -134.954688041347 Eh   |
          | TOTAL ENTHALPY           -134.331649705269 Eh   |
          | TOTAL FREE ENERGY        -134.449899257980 Eh   |
          | GRADIENT NORM               0.000463543013 Eh/α |
          | HOMO-LUMO GAP               1.205885074787 eV   |
           -------------------------------------------------

 * finished run on 2021/11/18 at 17:19:34.020
