   * xtb version 6.4.1 (bd6e46d) compiled by 'conda@4901f00b25ba' on 2021-06-10
          program call               : /home/jeff/miniconda3/bin/xtb input_structure_1.xyz --gfn 2 --ohess normal --parallel 1 --etemp 300 --chrg 0 --uhf 0 -I det_control.in
          number of atoms            :                   115
          number of electrons        :                   391
          charge                     :                     0
          spin                       :                   0.5

   ID    Z sym.   atoms
    1   27 Co     1, 37, 81
    2    6 C      2-9, 11-15, 17-21, 23, 24, 38-45, 47-51, 53-57, 59, 60,
                  73-80, 82-89, 91-95, 97-101, 103, 104
    3    7 N      10, 16, 22, 25, 46, 52, 58, 61, 90, 96, 102, 105
    4    1 H      26-36, 62-72, 106-115

          :  Hamiltonian                  GFN2-xTB          :
 * total energy  :  -206.9962134 Eh     change        0.2660647E-07 Eh
 * total energy  :  -207.2110457 Eh     change       -0.2148323E+00 Eh
 * total energy  :  -207.3436584 Eh     change       -0.1326127E+00 Eh
 * total energy  :  -207.4184569 Eh     change       -0.7479845E-01 Eh
 * total energy  :  -207.4716675 Eh     change       -0.5321065E-01 Eh
 * total energy  :  -207.5102654 Eh     change       -0.3859790E-01 Eh
 * total energy  :  -207.5360405 Eh     change       -0.2577507E-01 Eh
 * total energy  :  -207.5512874 Eh     change       -0.1524693E-01 Eh
 * total energy  :  -207.5597955 Eh     change       -0.8508090E-02 Eh
 * total energy  :  -207.5672672 Eh     change       -0.7471684E-02 Eh
 * total energy  :  -208.0582035 Eh     change       -0.7095355E-04 Eh
 * total energy  :  -208.0582463 Eh     change       -0.4277913E-04 Eh
 * total energy  :  -208.0582728 Eh     change       -0.2653803E-04 Eh
 * total energy  :  -208.0582931 Eh     change       -0.2030280E-04 Eh
 * total energy  :  -208.0583079 Eh     change       -0.1480585E-04 Eh
 * total energy  :  -208.0583190 Eh     change       -0.1108752E-04 Eh
 * total energy  :  -208.0583290 Eh     change       -0.9996755E-05 Eh
 * total energy  :  -208.0583399 Eh     change       -0.1089948E-04 Eh
 * total energy  :  -208.0583426 Eh     change       -0.2706918E-05 Eh
   *** GEOMETRY OPTIMIZATION CONVERGED AFTER 68 ITERATIONS ***

 final structure:
================
115
 xtb: 6.4.1 (bd6e46d)
Co       14.50134902839567   -0.00097167416861   -0.01147598238918
C        16.99382007235147   -3.41065518694886    0.10917927247633
C        17.94677033677371   -2.45135066737923    0.10216614792553
C        17.25817027956608   -1.19836363011332    0.04126698060540
C        17.92384243116466    0.02801981076107   -0.00924662124375
C        17.23765606242991    1.24327372767120   -0.04955860915815
C        17.90514192914423    2.50840895733486   -0.09102411598461
C        16.93641890757917    3.45170618737879   -0.07550208116473
C        15.68834255567145    2.75255396279144   -0.02794061896913
N        15.88374633718987    1.39624215347451   -0.02136580533740
C        14.46972610532901    3.39389479393573    0.02313803996386
C        13.26334996890657    2.72903953042046    0.05019680166010
C        11.99807762716797    3.40210877432368    0.09201941317416
C        11.05076570762497    2.43997919527991    0.06278124663447
C        11.74469140068351    1.18632420871824    0.00619757542576
N        13.09855819947208    1.37249786735162    0.00844191839902
C        11.09909713612480   -0.02961222732461   -0.06003271347965
C        11.76659282940045   -1.23490312831830   -0.09715329600941
C        11.09537899103252   -2.50082785199665   -0.15517635442270
C        12.05853011979484   -3.44731316376815   -0.13323554838557
C        13.31073684072789   -2.75237479599113   -0.06471909379146
N        13.12269518508590   -1.39829864941922   -0.05252999060092
C        14.52713519595703   -3.39607815925228   -0.00009608177116
C        15.73425065975758   -2.73337475952908    0.05015421342497
N        15.90700005190797   -1.37427918177976    0.01923230002037
H        17.11028537385248   -4.47625746791065    0.14698069133070
H        19.01369782613118   -2.55638681075697    0.13325076917288
H        18.97011874873508    2.63163934891650   -0.12340068695376
H        17.03503842386405    4.51962814675108   -0.09345526680942
H        14.46098507302600    4.47319996399710    0.03686234489186
H        11.87856332167898    4.46744092612533    0.13421872368529
H         9.98290490504064    2.54212036511080    0.07643422881328
H        10.02001344316552   -0.03860429290348   -0.07820363404331
H        10.03037715596118   -2.62116911934502   -0.20236145237935
H        11.95776875269848   -4.51507453951471   -0.15915850031310
H        14.53659669683355   -4.47543478752474    0.00708663298970
Co       41.35000250244155    0.03077513839828   -0.00851278762499
C        38.86401260713761    3.38364525301891    0.65224074861846
C        37.90893842700697    2.44211777709540    0.48002210571844
C        38.59527898431908    1.21215878693443    0.22678036578873
C        37.92708190450009    0.00924249216833   -0.00941279715879
C        38.61029017451666   -1.18743968553853   -0.23328810979249
C        37.93949460480067   -2.42973558760385   -0.46710486868092
C        38.90620301428994   -3.36385596645960   -0.61283243493482
C        40.15630969489505   -2.68154234819615   -0.46958580621072
N        39.96408698229055   -1.34396559613097   -0.24224200714827
C        41.37406093526879   -3.32182213197710   -0.54685926199934
C        42.58230919357115   -2.67075451257162   -0.42743272132707
C        43.84625141703205   -3.34112175253505   -0.52100402251999
C        44.79558704525898   -2.38960593781414   -0.38963672177161
C        44.10421347474006   -1.14562958672069   -0.21376435500262
N        42.74994015783851   -1.32802809602137   -0.23236135707619
C        44.75260921910068    0.06060739774258   -0.05832185073742
C        44.08817963630932    1.25371582750858    0.12762566563375
C        44.76288105875607    2.50687101361608    0.30313938310644
C        43.80191599664739    3.43744479425675    0.48881350727129
C        42.54755480991263    2.74625750161187    0.42185725943497
N        42.73227105897143    1.41086473201461    0.19471273694979
C        41.33189700814611    3.37493650435441    0.57995166315673
C        40.12259364746367    2.71930642826117    0.49922593410063
N        39.94705654343067    1.38423618706434    0.24498877401353
H        38.74969758596814    4.42956789416993    0.86068100996992
H        36.84198399721444    2.54498426941254    0.51723237240629
H        36.87396751317110   -2.54558382426719   -0.50778944905537
H        38.80505249510970   -4.41517213764842   -0.79993659174795
H        41.38044067620436   -4.38797366875669   -0.71550920908891
H        43.96349518313392   -4.39709154370493   -0.66986196070514
H        45.86327505836842   -2.49310415078128   -0.40614069670730
H        45.83167625137152    0.07051175978345   -0.07719687196513
H        45.82848403463805    2.62981475166052    0.28515515203724
H        43.90537947422453    4.49211700330546    0.65594377915687
H        41.32486068789995    4.43722947859904    0.77136348754526
C        19.32198897198285    0.03837208147455   -0.01209588497037
C        20.53954489402946    0.04223552510722   -0.01476702910131
C        21.88216813894932    0.04466972828270   -0.01339151116006
C        23.09984577899303    0.04307252306730   -0.01208476680690
C        32.75081781775688    0.00216553116297   -0.01768137964639
C        33.96839226963885   -0.00054672481210   -0.01893899205054
C        35.31119063612661   -0.00071625842270   -0.01829042734628
C        36.52866898473001    0.00248607121878   -0.01476004261229
Co       27.92527429404736    0.02384016539220   -0.00438756576808
C        25.44289737859453   -3.37865649298731    0.35706800992986
C        24.48550499018154   -2.42928107098124    0.25407518152869
C        25.16924547914802   -1.17937186772948    0.12003353561462
C        24.49751915262843    0.03810845063530   -0.00906274837039
C        25.17960854791629    1.25034722662962   -0.13193612231844
C        24.50655474164950    2.50662021737094   -0.26028174075963
C        25.47202727824610    3.44899306988297   -0.35151299119070
C        26.72274910360231    2.75742826056319   -0.27862219306566
N        26.53269910286377    1.40691485578027   -0.14410581044651
C        27.93974324098738    3.39967708613101   -0.33963515261998
C        29.15116382170529    2.74737487990063   -0.27432316287485
C        30.40778948198918    3.42867354688497   -0.34229921622876
C        31.36516644334275    2.47808006942270   -0.25129355149755
C        30.68135859613707    1.22705033386067   -0.12819380016827
N        29.32961669734533    1.39504133438177   -0.14230963660038
C        31.35292519482228    0.00810450068471   -0.01436504998430
C        30.67091911590387   -1.20431929304996    0.10623296872172
C        31.34400747381349   -2.46100514502142    0.23080829870187
C        30.37857566419882   -3.40195953511822    0.33585208120861
C        29.12784741280129   -2.70938932317057    0.27304608835767
N        29.31782086445993   -1.35962153448812    0.13132061587616
C        27.91089923979239   -3.35022599598577    0.34830396378839
C        26.69947487308487   -2.69790235595183    0.28344612317754
N        26.52095272662202   -1.34684853650228    0.13878401904162
H        25.33136671771760   -4.43930328918803    0.47138691334187
H        23.41866172711737   -2.53891398969008    0.26555473238601
H        23.44066525110586    2.62489448231734   -0.27541729231666
H        25.36959075311299    4.51135079086044   -0.45819814623549
H        27.94439392608229    4.47393261946764   -0.44590482310606
H        30.51935849221926    4.49036047831166   -0.44642575402312
H        32.43202185163936    2.58751776662008   -0.26468241346425
H        32.40988665703739   -2.58031454696568    0.23617822873002
H        30.48103812828253   -4.46399877650142    0.44564401782209
H        27.90629935177829   -4.42368514917907    0.46233351557737

          :  Hamiltonian                  GFN2-xTB          :
         :: gradient norm              0.000252610847 Eh/a0 ::
         :: HOMO-LUMO gap              0.000301083399 eV    ::
         :: SCC energy              -211.772123506637 Eh    ::
         :: -> dispersion             -0.183813201691 Eh    ::
         :: repulsion energy           3.716380450635 Eh    ::

    * Orbital Energies and Occupations

         #    Occupation            Energy/Eh            Energy/eV
      -------------------------------------------------------------
         1        2.0000           -0.6693266             -18.2133
       ...           ...                  ...                  ...
       184        2.0000           -0.3630917              -9.8802
       185        1.9995           -0.3533148              -9.6142
       186        1.8910           -0.3481630              -9.4740
       187        1.8833           -0.3480933              -9.4721
       188        1.8829           -0.3480901              -9.4720
       189        1.8729           -0.3480059              -9.4697
       190        1.8609           -0.3479135              -9.4672
       191        1.8548           -0.3478694              -9.4660
       192        1.8239           -0.3476672              -9.4605
       193        1.8170           -0.3476268              -9.4594
       194        1.8169           -0.3476259              -9.4594
       195        1.4400           -0.3463116              -9.4236
       196        1.4308           -0.3462893              -9.4230 (HOMO)
       197        1.4262           -0.3462782              -9.4227 (LUMO)
       198                         -0.3110850              -8.4651
       199                         -0.3007570              -8.1840
       200                         -0.2968135              -8.0767
       201                         -0.2963833              -8.0650
       202                         -0.2963790              -8.0649
       203                         -0.2916580              -7.9364
       204                         -0.2679450              -7.2912
       205                         -0.2643583              -7.1936
       206                         -0.2632656              -7.1638
       207                         -0.2631628              -7.1610
       ...                                ...                  ...
       379                          1.6347218              44.4830
      -------------------------------------------------------------
                  HL-Gap            0.0000111 Eh            0.0003 eV

     #   Z          covCN         q      C6AA      α(0)
     1  27 Co       3.055     0.102   140.897    24.319
     2   6 C        3.025    -0.053    29.291     8.878
     3   6 C        3.022    -0.051    29.251     8.872
     4   6 C        3.195     0.073    25.882     8.295
     5   6 C        2.956     0.017    27.621     8.620
     6   6 C        3.195     0.073    25.883     8.295
     7   6 C        3.022    -0.051    29.249     8.871
     8   6 C        3.025    -0.053    29.291     8.878
     9   6 C        3.180     0.072    25.988     8.322
    10   7 N        2.630    -0.131    23.855     7.254
    11   6 C        2.905    -0.050    29.242     8.867
    12   6 C        3.177     0.073    25.983     8.323
    13   6 C        3.021    -0.052    29.270     8.874
    14   6 C        3.022    -0.052    29.272     8.875
    15   6 C        3.177     0.073    25.976     8.322
    16   7 N        2.631    -0.130    23.822     7.249
    17   6 C        2.905    -0.052    29.285     8.873
    18   6 C        3.177     0.073    25.976     8.322
    19   6 C        3.022    -0.052    29.272     8.875
    20   6 C        3.021    -0.052    29.270     8.875
    21   6 C        3.177     0.073    25.983     8.323
    22   7 N        2.631    -0.130    23.822     7.249
    23   6 C        2.905    -0.050    29.242     8.867
    24   6 C        3.181     0.072    25.987     8.322
    25   7 N        2.630    -0.131    23.853     7.254
    26   1 H        0.926     0.034     2.529     2.487
    27   1 H        0.926     0.036     2.500     2.473
    28   1 H        0.926     0.036     2.500     2.473
    29   1 H        0.926     0.034     2.529     2.487
    30   1 H        0.926     0.050     2.324     2.384
    31   1 H        0.926     0.035     2.522     2.483
    32   1 H        0.926     0.034     2.524     2.484
    33   1 H        0.926     0.049     2.332     2.388
    34   1 H        0.926     0.034     2.524     2.484
    35   1 H        0.926     0.035     2.522     2.483
    36   1 H        0.926     0.050     2.324     2.384
    37  27 Co       3.054     0.102   140.896    24.319
    38   6 C        3.025    -0.053    29.291     8.878
    39   6 C        3.022    -0.051    29.251     8.872
    40   6 C        3.195     0.073    25.881     8.294
    41   6 C        2.956     0.017    27.621     8.620
    42   6 C        3.195     0.073    25.882     8.295
    43   6 C        3.022    -0.051    29.250     8.871
    44   6 C        3.025    -0.053    29.291     8.878
    45   6 C        3.181     0.072    25.986     8.322
    46   7 N        2.630    -0.131    23.855     7.254
    47   6 C        2.905    -0.050    29.243     8.867
    48   6 C        3.177     0.073    25.982     8.323
    49   6 C        3.021    -0.052    29.270     8.875
    50   6 C        3.022    -0.052    29.272     8.875
    51   6 C        3.177     0.073    25.975     8.322
    52   7 N        2.631    -0.130    23.822     7.249
    53   6 C        2.905    -0.052    29.286     8.873
    54   6 C        3.177     0.073    25.975     8.322
    55   6 C        3.022    -0.052    29.272     8.875
    56   6 C        3.021    -0.052    29.270     8.875
    57   6 C        3.177     0.073    25.982     8.323
    58   7 N        2.631    -0.130    23.822     7.249
    59   6 C        2.905    -0.050    29.243     8.867
    60   6 C        3.181     0.072    25.986     8.322
    61   7 N        2.630    -0.131    23.854     7.254
    62   1 H        0.926     0.034     2.529     2.487
    63   1 H        0.926     0.036     2.500     2.472
    64   1 H        0.926     0.036     2.499     2.472
    65   1 H        0.926     0.034     2.529     2.487
    66   1 H        0.926     0.050     2.324     2.384
    67   1 H        0.926     0.035     2.522     2.483
    68   1 H        0.926     0.034     2.524     2.484
    69   1 H        0.926     0.049     2.332     2.388
    70   1 H        0.926     0.034     2.524     2.484
    71   1 H        0.926     0.035     2.522     2.484
    72   1 H        0.926     0.050     2.324     2.384
    73   6 C        1.993    -0.021    31.612     9.080
    74   6 C        1.963    -0.010    31.331     9.039
    75   6 C        1.963    -0.010    31.327     9.039
    76   6 C        1.993    -0.021    31.616     9.081
    77   6 C        1.993    -0.021    31.615     9.080
    78   6 C        1.963    -0.010    31.326     9.039
    79   6 C        1.963    -0.010    31.331     9.039
    80   6 C        1.993    -0.021    31.611     9.080
    81  27 Co       3.048     0.102   140.898    24.319
    82   6 C        3.025    -0.053    29.289     8.877
    83   6 C        3.023    -0.051    29.252     8.872
    84   6 C        3.197     0.073    25.865     8.291
    85   6 C        2.957     0.017    27.621     8.620
    86   6 C        3.197     0.073    25.865     8.291
    87   6 C        3.023    -0.051    29.251     8.872
    88   6 C        3.025    -0.053    29.289     8.877
    89   6 C        3.182     0.072    25.980     8.319
    90   7 N        2.629    -0.132    23.872     7.256
    91   6 C        2.905    -0.048    29.195     8.860
    92   6 C        3.182     0.072    25.980     8.319
    93   6 C        3.025    -0.053    29.289     8.877
    94   6 C        3.023    -0.052    29.252     8.872
    95   6 C        3.197     0.073    25.865     8.291
    96   7 N        2.629    -0.132    23.872     7.256
    97   6 C        2.957     0.017    27.621     8.620
    98   6 C        3.197     0.073    25.865     8.291
    99   6 C        3.023    -0.051    29.252     8.872
   100   6 C        3.025    -0.053    29.289     8.877
   101   6 C        3.182     0.072    25.980     8.319
   102   7 N        2.629    -0.132    23.872     7.256
   103   6 C        2.905    -0.048    29.195     8.860
   104   6 C        3.182     0.072    25.980     8.319
   105   7 N        2.629    -0.132    23.871     7.256
   106   1 H        0.926     0.034     2.531     2.488
   107   1 H        0.926     0.036     2.504     2.475
   108   1 H        0.926     0.036     2.504     2.474
   109   1 H        0.926     0.034     2.531     2.488
   110   1 H        0.926     0.050     2.319     2.381
   111   1 H        0.926     0.034     2.531     2.488
   112   1 H        0.926     0.036     2.503     2.474
   113   1 H        0.926     0.036     2.503     2.474
   114   1 H        0.926     0.034     2.531     2.488
   115   1 H        0.926     0.050     2.319     2.381

Wiberg/Mayer (AO) data.
largest (>0.10) Wiberg bond orders for each atom

     #   Z sym  total        # sym  WBO       # sym  WBO       # sym  WBO
 ---------------------------------------------------------------------------
     1  27 Co   3.328 --    16 N    0.724    22 N    0.724    25 N    0.722
                            10 N    0.722
     2   6 C    3.952 --     3 C    1.642    24 C    1.174    26 H    0.972
     3   6 C    3.956 --     2 C    1.642     4 C    1.183    27 H    0.970
     4   6 C    3.916 --    25 N    1.261     5 C    1.257     3 C    1.183
     5   6 C    3.947 --     6 C    1.258     4 C    1.257    73 C    1.178
     6   6 C    3.916 --    10 N    1.261     5 C    1.258     7 C    1.183
     7   6 C    3.956 --     8 C    1.642     6 C    1.183    28 H    0.970
     8   6 C    3.952 --     7 C    1.642     9 C    1.174    29 H    0.972
     9   6 C    3.929 --    11 C    1.359    10 N    1.228     8 C    1.174
    10   7 N    3.514 --     6 C    1.261     9 C    1.228     1 Co   0.722
    11   6 C    3.938 --     9 C    1.359    12 C    1.359    30 H    0.963
    12   6 C    3.934 --    11 C    1.359    16 N    1.239    13 C    1.166
    13   6 C    3.957 --    14 C    1.657    12 C    1.166    31 H    0.972
    14   6 C    3.954 --    13 C    1.657    15 C    1.165    32 H    0.972
    15   6 C    3.936 --    17 C    1.358    16 N    1.242    14 C    1.165
    16   7 N    3.509 --    15 C    1.242    12 C    1.239     1 Co   0.724
    17   6 C    3.935 --    18 C    1.358    15 C    1.358    33 H    0.964
    18   6 C    3.936 --    17 C    1.358    22 N    1.242    19 C    1.165
    19   6 C    3.954 --    20 C    1.657    18 C    1.165    34 H    0.972
    20   6 C    3.957 --    19 C    1.657    21 C    1.166    35 H    0.972
    21   6 C    3.934 --    23 C    1.359    22 N    1.239    20 C    1.166
    22   7 N    3.509 --    18 C    1.242    21 C    1.239     1 Co   0.724
    23   6 C    3.938 --    24 C    1.359    21 C    1.359    36 H    0.963
    24   6 C    3.929 --    23 C    1.359    25 N    1.228     2 C    1.174
    25   7 N    3.514 --     4 C    1.261    24 C    1.228     1 Co   0.722
    26   1 H    0.998 --     2 C    0.972
    27   1 H    0.998 --     3 C    0.970
    28   1 H    0.998 --     7 C    0.970
    29   1 H    0.998 --     8 C    0.972
    30   1 H    0.996 --    11 C    0.963
    31   1 H    0.998 --    13 C    0.972
    32   1 H    0.998 --    14 C    0.972
    33   1 H    0.996 --    17 C    0.964
    34   1 H    0.998 --    19 C    0.972
    35   1 H    0.998 --    20 C    0.972
    36   1 H    0.996 --    23 C    0.963
    37  27 Co   3.327 --    52 N    0.724    58 N    0.724    61 N    0.722
                            46 N    0.722
    38   6 C    3.952 --    39 C    1.642    60 C    1.174    62 H    0.972
    39   6 C    3.956 --    38 C    1.642    40 C    1.183    63 H    0.970
    40   6 C    3.916 --    61 N    1.261    41 C    1.258    39 C    1.183
    41   6 C    3.947 --    42 C    1.258    40 C    1.258    80 C    1.177
    42   6 C    3.916 --    46 N    1.261    41 C    1.258    43 C    1.183
    43   6 C    3.956 --    44 C    1.642    42 C    1.183    64 H    0.970
    44   6 C    3.952 --    43 C    1.642    45 C    1.174    65 H    0.972
    45   6 C    3.929 --    47 C    1.359    46 N    1.228    44 C    1.174
    46   7 N    3.514 --    42 C    1.261    45 C    1.228    37 Co   0.722
    47   6 C    3.938 --    45 C    1.359    48 C    1.359    66 H    0.963
    48   6 C    3.934 --    47 C    1.359    52 N    1.239    49 C    1.166
    49   6 C    3.957 --    50 C    1.657    48 C    1.166    67 H    0.972
    50   6 C    3.954 --    49 C    1.657    51 C    1.165    68 H    0.972
    51   6 C    3.936 --    53 C    1.358    52 N    1.242    50 C    1.165
    52   7 N    3.510 --    51 C    1.242    48 C    1.239    37 Co   0.724
    53   6 C    3.935 --    54 C    1.358    51 C    1.358    69 H    0.964
    54   6 C    3.936 --    53 C    1.358    58 N    1.242    55 C    1.165
    55   6 C    3.954 --    56 C    1.657    54 C    1.165    70 H    0.972
    56   6 C    3.957 --    55 C    1.657    57 C    1.166    71 H    0.972
    57   6 C    3.934 --    59 C    1.359    58 N    1.239    56 C    1.166
    58   7 N    3.510 --    54 C    1.242    57 C    1.239    37 Co   0.724
    59   6 C    3.938 --    60 C    1.359    57 C    1.359    72 H    0.963
    60   6 C    3.929 --    59 C    1.359    61 N    1.228    38 C    1.174
    61   7 N    3.514 --    40 C    1.261    60 C    1.228    37 Co   0.722
    62   1 H    0.998 --    38 C    0.972
    63   1 H    0.998 --    39 C    0.970
    64   1 H    0.998 --    43 C    0.970
    65   1 H    0.998 --    44 C    0.972
    66   1 H    0.996 --    47 C    0.963
    67   1 H    0.998 --    49 C    0.972
    68   1 H    0.998 --    50 C    0.972
    69   1 H    0.996 --    53 C    0.964
    70   1 H    0.998 --    55 C    0.972
    71   1 H    0.998 --    56 C    0.972
    72   1 H    0.996 --    59 C    0.963
    73   6 C    3.920 --    74 C    2.478     5 C    1.178    76 C    0.204
    74   6 C    3.931 --    73 C    2.478    75 C    1.300
    75   6 C    3.929 --    76 C    2.477    74 C    1.300
    76   6 C    3.921 --    75 C    2.477    85 C    1.180    73 C    0.204
    77   6 C    3.920 --    78 C    2.478    97 C    1.179    80 C    0.204
    78   6 C    3.929 --    77 C    2.478    79 C    1.299
    79   6 C    3.931 --    80 C    2.479    78 C    1.299
    80   6 C    3.919 --    79 C    2.479    41 C    1.177    77 C    0.204
    81  27 Co   3.303 --    96 N    0.718   102 N    0.718   105 N    0.718
                            90 N    0.718
    82   6 C    3.953 --    83 C    1.641   104 C    1.175   106 H    0.972
    83   6 C    3.955 --    82 C    1.641    84 C    1.183   107 H    0.970
    84   6 C    3.917 --   105 N    1.264    85 C    1.256    83 C    1.183
    85   6 C    3.938 --    86 C    1.256    84 C    1.256    76 C    1.180
    86   6 C    3.917 --    90 N    1.264    85 C    1.256    87 C    1.183
    87   6 C    3.955 --    88 C    1.641    86 C    1.183   108 H    0.970
    88   6 C    3.953 --    87 C    1.641    89 C    1.175   109 H    0.972
    89   6 C    3.928 --    91 C    1.359    90 N    1.226    88 C    1.175
    90   7 N    3.506 --    86 C    1.264    89 C    1.226    81 Co   0.718
    91   6 C    3.933 --    89 C    1.359    92 C    1.359   110 H    0.963
    92   6 C    3.928 --    91 C    1.359    96 N    1.226    93 C    1.175
    93   6 C    3.953 --    94 C    1.641    92 C    1.175   111 H    0.972
    94   6 C    3.955 --    93 C    1.641    95 C    1.183   112 H    0.970
    95   6 C    3.917 --    96 N    1.264    97 C    1.256    94 C    1.183
    96   7 N    3.506 --    95 C    1.264    92 C    1.226    81 Co   0.718
    97   6 C    3.937 --    98 C    1.256    95 C    1.256    77 C    1.179
    98   6 C    3.917 --   102 N    1.264    97 C    1.256    99 C    1.183
    99   6 C    3.955 --   100 C    1.641    98 C    1.183   113 H    0.970
   100   6 C    3.953 --    99 C    1.641   101 C    1.175   114 H    0.972
   101   6 C    3.928 --   103 C    1.359   102 N    1.227   100 C    1.175
   102   7 N    3.506 --    98 C    1.264   101 C    1.227    81 Co   0.718
   103   6 C    3.933 --   104 C    1.359   101 C    1.359   115 H    0.963
   104   6 C    3.928 --   103 C    1.359   105 N    1.226    82 C    1.175
   105   7 N    3.506 --    84 C    1.264   104 C    1.226    81 Co   0.718
   106   1 H    0.998 --    82 C    0.972
   107   1 H    0.998 --    83 C    0.970
   108   1 H    0.998 --    87 C    0.970
   109   1 H    0.998 --    88 C    0.972
   110   1 H    0.996 --    91 C    0.963
   111   1 H    0.998 --    93 C    0.972
   112   1 H    0.998 --    94 C    0.970
   113   1 H    0.998 --    99 C    0.970
   114   1 H    0.998 --   100 C    0.972
   115   1 H    0.996 --   103 C    0.963
 ---------------------------------------------------------------------------

molecular dipole:
                 x           y           z       tot (Debye)
 q only:        0.001      -0.001       0.003
   full:        0.001      -0.001       0.004       0.012

 projected vibrational frequencies (cm⁻¹)
eigval :       -0.00    -0.00    -0.00     0.00     0.00     0.00
eigval :      -12.69   -12.52    -5.10     2.73     3.83     4.37
eigval :        9.48    11.45    12.53    20.84    23.47    23.93
eigval :       29.84    37.42    40.80    48.93    52.23    83.26
eigval :       96.58   100.72   100.93   102.45   106.71   117.58
eigval :      119.34   119.42   122.96   144.90   148.95   154.19
eigval :      161.18   179.29   189.16   189.40   189.61   216.41
eigval :      225.42   226.29   226.58   226.80   226.84   231.18
eigval :      231.63   240.14   243.29   243.35   245.88   248.96
eigval :      249.14   250.02   251.29   260.84   263.60   265.23
eigval :      265.83   266.29   266.64   267.04   291.77   294.03
eigval :      308.93   311.00   318.20   319.53   320.65   326.17
eigval :      332.12   343.54   343.87   359.13   359.31   361.58
eigval :      366.20   368.54   371.14   371.44   381.07   381.56
eigval :      382.81   383.22   388.07   388.90   389.02   392.19
eigval :      393.85   399.70   402.25   402.35   402.39   420.20
eigval :      422.35   422.38   437.20   437.46   438.98   452.81
eigval :      460.46   460.48   466.43   502.22   505.24   507.08
eigval :      509.63   522.42   538.53   617.46   619.09   619.19
eigval :      620.56   623.30   623.30   625.81   625.85   631.57
eigval :      635.13   638.58   638.63   643.07   643.14   652.79
eigval :      657.81   658.40   658.48   666.27   666.30   670.20
eigval :      672.80   672.99   673.12   723.22   723.40   725.39
eigval :      725.59   755.75   758.92   760.17   760.48   763.03
eigval :      763.81   768.56   769.70   780.98   780.99   782.33
eigval :      782.39   799.58   799.77   800.06   800.14   800.82
eigval :      801.17   804.34   806.23   806.40   806.54   811.13
eigval :      811.28   817.18   817.78   818.62   819.00   819.32
eigval :      819.62   826.62   826.79   834.51   834.70   834.84
eigval :      836.18   837.68   837.81   844.48   844.64   845.15
eigval :      845.19   845.43   845.87   845.94   846.08   846.14
eigval :      846.40   846.56   846.83   928.95   930.79   986.96
eigval :      988.11   993.14  1002.08  1002.79  1002.86  1005.95
eigval :     1012.17  1021.75  1022.30  1022.32  1022.50  1027.12
eigval :     1027.15  1030.45  1032.60  1035.55  1035.60  1036.47
eigval :     1040.36  1040.41  1041.64  1067.03  1067.07  1069.21
eigval :     1069.84  1070.03  1070.65  1071.76  1072.04  1072.76
eigval :     1072.96  1073.56  1073.85  1121.15  1130.82  1139.94
eigval :     1140.70  1140.75  1157.06  1163.80  1170.35  1173.32
eigval :     1174.51  1174.56  1209.56  1220.33  1225.34  1225.38
eigval :     1227.63  1245.47  1245.75  1247.89  1261.59  1282.08
eigval :     1282.13  1303.63  1305.32  1306.63  1306.68  1307.57
eigval :     1312.60  1319.73  1319.79  1319.88  1320.24  1327.64
eigval :     1330.80  1330.82  1331.54  1331.62  1336.72  1340.11
eigval :     1340.58  1343.52  1349.92  1353.89  1354.67  1354.74
eigval :     1355.28  1402.93  1403.63  1462.92  1470.09  1470.14
eigval :     1471.83  1476.14  1482.94  1487.11  1492.98  1493.58
eigval :     1504.98  1508.22  1508.47  1515.29  1516.99  1518.34
eigval :     1527.49  1532.40  1535.14  1535.48  1537.28  1537.50
eigval :     1538.24  1548.10  1548.34  1555.66  1556.48  1562.39
eigval :     1562.63  1578.36  1578.59  1588.88  1589.51  1591.54
eigval :     1614.09  1620.05  1620.31  2233.19  2237.51  2238.68
eigval :     2238.95  3091.99  3092.44  3092.51  3092.88  3093.32
eigval :     3093.58  3094.79  3094.94  3149.24  3149.33  3149.63
eigval :     3149.68  3153.94  3154.08  3154.19  3154.28  3154.34
eigval :     3154.50  3154.60  3154.78  3162.41  3162.57  3162.63
eigval :     3162.75  3168.36  3168.56  3168.59  3168.91  3168.96
eigval :     3169.04  3169.19  3169.58

   temp. (K)  partition function   enthalpy   heat capacity  entropy
                                   cal/mol     cal/K/mol   cal/K/mol   J/K/mol
 298.15  VIB  0.147E+35            39594.086    258.397    249.173
         ROT  0.819E+09              888.752      2.981     43.768
         INT  0.121E+44            40482.838    261.378    292.941
         TR   0.399E+29             1481.254      4.968     47.088
         TOT                       41964.0920   266.3460   340.0288  1422.6807

       T/K    H(0)-H(T)+PV         H(T)/Eh          T*S/Eh         G(T)/Eh
   ------------------------------------------------------------------------
    298.15    0.668740E-01    0.861977E+00    0.161559E+00    0.700419E+00
   ------------------------------------------------------------------------

         :::::::::::::::::::::::::::::::::::::::::::::::::::::
         ::                  THERMODYNAMIC                  ::
         :::::::::::::::::::::::::::::::::::::::::::::::::::::
         :: total free energy        -207.357923911263 Eh   ::
         ::.................................................::
         :: total energy             -208.058342596102 Eh   ::
         :: zero point energy           0.795103324945 Eh   ::
         :: G(RRHO) w/o ZPVE           -0.094684640106 Eh   ::
         :: G(RRHO) contrib.            0.700418684839 Eh   ::
         :::::::::::::::::::::::::::::::::::::::::::::::::::::

           -------------------------------------------------
          | TOTAL ENERGY             -208.058342596102 Eh   |
          | TOTAL ENTHALPY           -207.196365233805 Eh   |
          | TOTAL FREE ENERGY        -207.357923911263 Eh   |
          | GRADIENT NORM               0.000252584460 Eh/α |
          | HOMO-LUMO GAP               0.000302500176 eV   |
           -------------------------------------------------

 * finished run on 2021/11/19 at 11:33:22.601
