   * xtb version 6.4.1 (bd6e46d) compiled by 'conda@4901f00b25ba' on 2021-06-10
          program call               : /home/jeff/miniconda3/bin/xtb input_structure_1.xyz --gfn 2 --ohess normal --parallel 1 --etemp 300 --chrg 0 --uhf 0 -I det_control.in
          number of atoms            :                    78
          number of electrons        :                   242
          charge                     :                     0
          spin                       :                   0.0

   ID    Z sym.   atoms
    1    6 C      1-8, 10-14, 16-20, 22, 23, 38-49, 51-55, 57-61, 63, 64
    2    7 N      9, 15, 21, 24, 50, 56, 62, 65
    3    1 H      25-37, 66-78

          :  Hamiltonian                  GFN2-xTB          :
 * total energy  :  -130.3832077 Eh     change       -0.1432369E-07 Eh
 * total energy  :  -130.5168637 Eh     change       -0.1336561E+00 Eh
 * total energy  :  -130.5778131 Eh     change       -0.6094934E-01 Eh
 * total energy  :  -130.6070746 Eh     change       -0.2926152E-01 Eh
 * total energy  :  -130.6322460 Eh     change       -0.2517141E-01 Eh
 * total energy  :  -130.6522789 Eh     change       -0.2003292E-01 Eh
 * total energy  :  -130.6680505 Eh     change       -0.1577162E-01 Eh
 * total energy  :  -130.6798254 Eh     change       -0.1177485E-01 Eh
 * total energy  :  -130.6882243 Eh     change       -0.8398887E-02 Eh
 * total energy  :  -130.6933278 Eh     change       -0.5103536E-02 Eh
 * total energy  :  -130.7272254 Eh     change       -0.1019190E-04 Eh
 * total energy  :  -130.7272328 Eh     change       -0.7405612E-05 Eh
 * total energy  :  -130.7272390 Eh     change       -0.6213950E-05 Eh
 * total energy  :  -130.7272454 Eh     change       -0.6384362E-05 Eh
 * total energy  :  -130.7272529 Eh     change       -0.7554338E-05 Eh
 * total energy  :  -130.7272615 Eh     change       -0.8567093E-05 Eh
 * total energy  :  -130.7272697 Eh     change       -0.8159717E-05 Eh
 * total energy  :  -130.7272767 Eh     change       -0.7036074E-05 Eh
 * total energy  :  -130.7272792 Eh     change       -0.2514737E-05 Eh
   *** GEOMETRY OPTIMIZATION CONVERGED AFTER 68 ITERATIONS ***

 final structure:
================
78
 xtb: 6.4.1 (bd6e46d)
C         3.86164991415825   -1.40079741040464   -3.40929338441422
C         3.02006560566617   -1.11279072586619   -2.39757069318357
C         3.82331558955583   -0.44459023571275   -1.38882230789637
C         3.29955092225809    0.01368876206965   -0.16573010385818
C         4.05672299781953    0.63170036052973    0.84064421740614
C         3.59686100472289    1.09012516842613    2.10484624459839
C         4.66643790892964    1.62834816395936    2.75977666889611
C         5.80168405288025    1.51579210656838    1.90799251178358
N         5.38413895854320    0.90296259522392    0.76602893760739
C         7.08631231028831    1.96282582040108    2.17891905870646
C         8.19567445111321    1.88890740924019    1.34788514886394
C         9.49803842568531    2.41846587984730    1.72633819048164
C        10.31705321538251    2.18156663515705    0.68509112418133
C         9.50994392832342    1.50546908092288   -0.31896884472585
N         8.24092621692015    1.34801603393246    0.11289840582415
C        10.01192544219092    1.08660968535774   -1.54471389068964
C         9.28869795798656    0.43070795339385   -2.52873779761092
C         9.74969417005356   -0.03211026220761   -3.79463298004049
C         8.69607455386602   -0.62176729705861   -4.42770407665925
C         7.56305612058794   -0.53227594593005   -3.56698261478220
N         7.97096768528457    0.10726584778018   -2.43927131336812
C         6.28336563484776   -0.99799222743302   -3.82760435189653
C         5.16595415575157   -0.89802479060220   -3.01105571533966
N         5.10372550294694   -0.33186665965477   -1.78314935155211
H         3.65541052340521   -1.89447232750148   -4.33951578782268
H         1.97085432364499   -1.31791100802844   -2.30720080167552
H         2.58502345763536    1.01024069189648    2.45202318167813
H         4.67836545677927    2.06720122432696    3.73845783024807
H         5.96338193488656    0.68220245996796   -0.03564901375768
H         7.23471511904348    2.43139809721981    3.14198894190305
H         9.71305747490876    2.89815316874682    2.66208049938010
H        11.35699659585906    2.42156961297427    0.57217580646896
H        11.05464892065313    1.28475032549102   -1.74677836873002
H        10.75318328395357    0.07767051472042   -4.15753891685569
H         8.68917872153197   -1.07749489357346   -5.39892061818168
H         7.39541366827059    0.32396677760529   -1.63452833128190
H         6.13767934897841   -1.48592307367485   -4.78154826219313
C         1.92471110161285   -0.13307021597630    0.05867812788277
C         0.72315789726503   -0.22607046788128    0.23036890495048
C        -0.60879265914958   -0.29936692355605    0.39758322385478
C        -1.81818083347196   -0.34282762353976    0.52871210751242
C        -9.43559281976669    2.38441343096433   -0.55542255075741
C       -10.32692628664755    1.52827957884135   -0.02277081250537
C        -9.54969400770922    0.44311324427815    0.55606978762547
C       -10.12277347452586   -0.64283405138729    1.20585170323835
C        -9.42773903759762   -1.69748033546079    1.77695759590086
C        -9.95838711373280   -2.83138855012898    2.45659147508566
C        -8.90790863491632   -3.60515145182119    2.85194276225562
C        -7.70789934075733   -2.96525621820241    2.42389199330226
N        -8.07379201192415   -1.82388170345335    1.78305230534533
C        -6.41142316918864   -3.41608824371013    2.61974970052887
C        -5.23458122283426   -2.80949467111809    2.20422688147482
C        -3.92558860049432   -3.38568882734344    2.46408092626052
C        -3.02661342474408   -2.54464412864224    1.91695096095053
C        -3.79813049906053   -1.46281052232960    1.33097355042562
N        -5.11641916109496   -1.64782738524394    1.51994229159916
C        -3.21270418478854   -0.37560945710767    0.65726555035322
C        -3.93109879088549    0.68977575659951    0.09308810938402
C        -3.40080809373642    1.82029523096496   -0.58574981396891
C        -4.45319101411686    2.60281712467233   -0.96348423436999
C        -5.64923766257106    1.96701266179292   -0.52540827116216
N        -5.28175386757152    0.81856575727457    0.10726229932703
C        -6.94486918509352    2.42570857277623   -0.71086664013424
C        -8.12076957767600    1.81441055030226   -0.29842561641550
N        -8.22859728624137    0.64850891039567    0.37156591419946
H        -9.60932880297482    3.30845555263107   -1.07303204116938
H       -11.39822161595710    1.58992492197014   -0.00347963084691
H       -11.20084275808957   -0.66707066054691    1.27336906245128
H       -11.00327455442564   -3.01623197284515    2.61404794497960
H        -8.94561440334980   -4.53316588384232    3.38892552820347
H        -7.44723655689794   -1.14829671959673    1.36257575591527
H        -6.30624900666130   -4.34945463785774    3.15554924041213
H        -3.75677398565836   -4.30459660097172    2.99199631986790
H        -1.95619929469738   -2.61469234123666    1.89383102594554
H        -2.35618569982315    1.99721271876986   -0.75336913808326
H        -4.41579023152667    3.53332780969346   -1.49573350736735
H        -5.91101081891989    0.14623608947605    0.53024027668111
H        -7.04741486481730    3.36335616425562   -1.23943931072825

          :  Hamiltonian                  GFN2-xTB          :
         :: gradient norm              0.000215108670 Eh/a0 ::
         :: HOMO-LUMO gap              1.401842817255 eV    ::
         :: SCC energy              -133.152948057348 Eh    ::
         :: -> dispersion             -0.104693644055 Eh    ::
         :: repulsion energy           2.426691422579 Eh    ::

    * Orbital Energies and Occupations

         #    Occupation            Energy/Eh            Energy/eV
      -------------------------------------------------------------
         1        2.0000           -0.6833655             -18.5953
       ...           ...                  ...                  ...
       109        2.0000           -0.3962938             -10.7837
       110        2.0000           -0.3885992             -10.5743
       111        2.0000           -0.3885517             -10.5730
       112        2.0000           -0.3872223             -10.5369
       113        2.0000           -0.3871966             -10.5362
       114        2.0000           -0.3713384             -10.1046
       115        2.0000           -0.3712507             -10.1022
       116        2.0000           -0.3702943             -10.0762
       117        2.0000           -0.3702678             -10.0755
       118        2.0000           -0.3678483             -10.0097
       119        2.0000           -0.3678201             -10.0089
       120        2.0000           -0.3546778              -9.6513
       121        2.0000           -0.3537006              -9.6247 (HOMO)
       122                         -0.3021838              -8.2228 (LUMO)
       123                         -0.3011595              -8.1950
       124                         -0.2966003              -8.0709
       125                         -0.2964958              -8.0681
       126                         -0.2604883              -7.0882
       127                         -0.2599454              -7.0735
       128                         -0.2127914              -5.7903
       129                         -0.2113037              -5.7499
       130                         -0.1885604              -5.1310
       131                         -0.1885237              -5.1300
       132                         -0.1701684              -4.6305
       ...                                ...                  ...
       234                          1.6323228              44.4178
      -------------------------------------------------------------
                  HL-Gap            0.0515168 Eh            1.4018 eV

     #   Z          covCN         q      C6AA      α(0)
     1   6 C        3.016    -0.055    29.336     8.885
     2   6 C        3.009    -0.053    29.297     8.879
     3   6 C        3.196     0.087    25.575     8.245
     4   6 C        2.952     0.012    27.750     8.640
     5   6 C        3.096     0.064    26.459     8.430
     6   6 C        3.026    -0.050    29.207     8.865
     7   6 C        3.034    -0.052    29.253     8.871
     8   6 C        3.073     0.065    26.479     8.437
     9   7 N        2.785    -0.082    22.829     7.096
    10   6 C        2.899    -0.056    29.384     8.888
    11   6 C        3.171     0.087    25.716     8.284
    12   6 C        3.012    -0.054    29.318     8.882
    13   6 C        3.010    -0.054    29.319     8.882
    14   6 C        3.174     0.086    25.708     8.281
    15   7 N        1.870    -0.321    29.187     8.008
    16   6 C        2.899    -0.057    29.419     8.893
    17   6 C        3.074     0.065    26.470     8.436
    18   6 C        3.026    -0.051    29.240     8.870
    19   6 C        3.031    -0.051    29.232     8.868
    20   6 C        3.068     0.066    26.463     8.435
    21   7 N        2.787    -0.081    22.820     7.095
    22   6 C        2.899    -0.056    29.380     8.887
    23   6 C        3.175     0.086    25.716     8.282
    24   7 N        1.870    -0.325    29.287     8.022
    25   1 H        0.926     0.019     2.755     2.596
    26   1 H        0.926     0.021     2.713     2.576
    27   1 H        0.926     0.043     2.405     2.425
    28   1 H        0.926     0.041     2.433     2.439
    29   1 H        0.860     0.214     1.037     1.595
    30   1 H        0.925     0.046     2.364     2.404
    31   1 H        0.926     0.019     2.746     2.591
    32   1 H        0.926     0.019     2.745     2.591
    33   1 H        0.926     0.046     2.373     2.409
    34   1 H        0.926     0.042     2.426     2.436
    35   1 H        0.926     0.042     2.427     2.436
    36   1 H        0.860     0.214     1.036     1.595
    37   1 H        0.925     0.047     2.362     2.403
    38   6 C        1.995    -0.022    31.625     9.082
    39   6 C        1.963    -0.011    31.363     9.044
    40   6 C        1.963    -0.011    31.364     9.044
    41   6 C        1.995    -0.022    31.623     9.081
    42   6 C        3.012    -0.054    29.318     8.882
    43   6 C        3.010    -0.054    29.319     8.882
    44   6 C        3.174     0.086    25.707     8.281
    45   6 C        2.899    -0.057    29.419     8.893
    46   6 C        3.073     0.065    26.470     8.436
    47   6 C        3.026    -0.051    29.240     8.870
    48   6 C        3.031    -0.051    29.232     8.868
    49   6 C        3.068     0.066    26.463     8.435
    50   7 N        2.787    -0.081    22.820     7.095
    51   6 C        2.899    -0.056    29.381     8.887
    52   6 C        3.175     0.086    25.716     8.282
    53   6 C        3.016    -0.055    29.337     8.885
    54   6 C        3.009    -0.053    29.292     8.878
    55   6 C        3.195     0.087    25.577     8.245
    56   7 N        1.870    -0.325    29.292     8.023
    57   6 C        2.952     0.012    27.749     8.640
    58   6 C        3.097     0.064    26.459     8.430
    59   6 C        3.026    -0.050    29.210     8.865
    60   6 C        3.033    -0.052    29.252     8.871
    61   6 C        3.073     0.065    26.479     8.437
    62   7 N        2.785    -0.082    22.825     7.096
    63   6 C        2.899    -0.056    29.382     8.888
    64   6 C        3.171     0.087    25.716     8.284
    65   7 N        1.870    -0.321    29.187     8.008
    66   1 H        0.926     0.019     2.746     2.591
    67   1 H        0.926     0.019     2.745     2.591
    68   1 H        0.926     0.046     2.373     2.409
    69   1 H        0.926     0.042     2.427     2.436
    70   1 H        0.926     0.042     2.427     2.436
    71   1 H        0.860     0.214     1.036     1.595
    72   1 H        0.925     0.047     2.363     2.404
    73   1 H        0.926     0.018     2.757     2.596
    74   1 H        0.926     0.021     2.715     2.576
    75   1 H        0.926     0.043     2.404     2.425
    76   1 H        0.926     0.041     2.432     2.438
    77   1 H        0.860     0.214     1.037     1.595
    78   1 H        0.925     0.047     2.363     2.404

Wiberg/Mayer (AO) data.
largest (>0.10) Wiberg bond orders for each atom

     #   Z sym  total        # sym  WBO       # sym  WBO       # sym  WBO
 ---------------------------------------------------------------------------
     1   6 C    3.961 --     2 C    1.718    23 C    1.114    25 H    0.973
     2   6 C    3.962 --     1 C    1.718     3 C    1.121    26 H    0.971
     3   6 C    3.921 --    24 N    1.354     4 C    1.253     2 C    1.121
     4   6 C    3.942 --     5 C    1.257     3 C    1.253    38 C    1.172
     5   6 C    3.906 --     4 C    1.257     6 C    1.234     9 N    1.222
     6   6 C    3.956 --     7 C    1.596     5 C    1.234    27 H    0.972
     7   6 C    3.950 --     6 C    1.596     8 C    1.222    28 H    0.973
     8   6 C    3.918 --    10 C    1.345     7 C    1.222     9 N    1.203
     9   7 N    3.591 --     5 C    1.222     8 C    1.203    29 H    0.900
    10   6 C    3.925 --    11 C    1.357     8 C    1.345    30 H    0.964
    11   6 C    3.939 --    10 C    1.357    15 N    1.324    12 C    1.107
    12   6 C    3.963 --    13 C    1.731    11 C    1.107    31 H    0.973
    13   6 C    3.962 --    12 C    1.731    14 C    1.109    32 H    0.973
    14   6 C    3.938 --    16 C    1.354    15 N    1.325    13 C    1.109
    15   7 N    3.005 --    14 C    1.325    11 C    1.324
    16   6 C    3.927 --    14 C    1.354    17 C    1.348    33 H    0.965
    17   6 C    3.921 --    16 C    1.348    18 C    1.215    21 N    1.210
    18   6 C    3.950 --    19 C    1.610    17 C    1.215    34 H    0.973
    19   6 C    3.953 --    18 C    1.610    20 C    1.214    35 H    0.973
    20   6 C    3.917 --    22 C    1.345    19 C    1.214    21 N    1.211
    21   7 N    3.588 --    20 C    1.211    17 C    1.210    36 H    0.900
    22   6 C    3.938 --    23 C    1.362    20 C    1.345    37 H    0.964
    23   6 C    3.926 --    22 C    1.362    24 N    1.305     1 C    1.114
    24   7 N    3.011 --     3 C    1.354    23 C    1.305
    25   1 H    0.999 --     1 C    0.973
    26   1 H    0.999 --     2 C    0.971
    27   1 H    0.998 --     6 C    0.972
    28   1 H    0.998 --     7 C    0.973
    29   1 H    0.954 --     9 N    0.900
    30   1 H    0.997 --    10 C    0.964
    31   1 H    0.999 --    12 C    0.973
    32   1 H    0.999 --    13 C    0.973
    33   1 H    0.997 --    16 C    0.965
    34   1 H    0.998 --    18 C    0.973
    35   1 H    0.998 --    19 C    0.973
    36   1 H    0.954 --    21 N    0.900
    37   1 H    0.997 --    22 C    0.964
    38   6 C    3.911 --    39 C    2.481     4 C    1.172    41 C    0.199
    39   6 C    3.923 --    38 C    2.481    40 C    1.290
    40   6 C    3.923 --    41 C    2.481    39 C    1.290
    41   6 C    3.911 --    40 C    2.481    57 C    1.172    38 C    0.199
    42   6 C    3.963 --    43 C    1.731    64 C    1.107    66 H    0.973
    43   6 C    3.962 --    42 C    1.731    44 C    1.109    67 H    0.973
    44   6 C    3.938 --    45 C    1.354    65 N    1.326    43 C    1.109
    45   6 C    3.927 --    44 C    1.354    46 C    1.348    68 H    0.965
    46   6 C    3.921 --    45 C    1.348    47 C    1.215    50 N    1.210
    47   6 C    3.950 --    48 C    1.610    46 C    1.215    69 H    0.973
    48   6 C    3.953 --    47 C    1.610    49 C    1.214    70 H    0.973
    49   6 C    3.917 --    51 C    1.345    48 C    1.214    50 N    1.211
    50   7 N    3.587 --    49 C    1.211    46 C    1.210    71 H    0.900
    51   6 C    3.938 --    52 C    1.362    49 C    1.345    72 H    0.964
    52   6 C    3.926 --    51 C    1.362    56 N    1.305    53 C    1.114
    53   6 C    3.961 --    54 C    1.718    52 C    1.114    73 H    0.973
    54   6 C    3.962 --    53 C    1.718    55 C    1.121    74 H    0.971
    55   6 C    3.921 --    56 N    1.354    57 C    1.255    54 C    1.121
    56   7 N    3.011 --    55 C    1.354    52 C    1.305
    57   6 C    3.942 --    58 C    1.255    55 C    1.255    41 C    1.172
    58   6 C    3.906 --    57 C    1.255    59 C    1.234    62 N    1.223
    59   6 C    3.956 --    60 C    1.596    58 C    1.234    75 H    0.972
    60   6 C    3.950 --    59 C    1.596    61 C    1.222    76 H    0.973
    61   6 C    3.918 --    63 C    1.345    60 C    1.222    62 N    1.203
    62   7 N    3.591 --    58 C    1.223    61 C    1.203    77 H    0.900
    63   6 C    3.925 --    64 C    1.357    61 C    1.345    78 H    0.964
    64   6 C    3.939 --    63 C    1.357    65 N    1.324    42 C    1.107
    65   7 N    3.005 --    44 C    1.326    64 C    1.324
    66   1 H    0.999 --    42 C    0.973
    67   1 H    0.999 --    43 C    0.973
    68   1 H    0.997 --    45 C    0.965
    69   1 H    0.998 --    47 C    0.973
    70   1 H    0.998 --    48 C    0.973
    71   1 H    0.954 --    50 N    0.900
    72   1 H    0.997 --    51 C    0.964
    73   1 H    0.999 --    53 C    0.973
    74   1 H    0.999 --    54 C    0.971
    75   1 H    0.998 --    59 C    0.972
    76   1 H    0.998 --    60 C    0.973
    77   1 H    0.954 --    62 N    0.900
    78   1 H    0.997 --    63 C    0.964
 ---------------------------------------------------------------------------

molecular dipole:
                 x           y           z       tot (Debye)
 q only:       -0.007       0.030      -0.026
   full:       -0.011       0.042      -0.042       0.153

 projected vibrational frequencies (cm⁻¹)
eigval :       -0.00    -0.00    -0.00     0.00     0.00     0.00
eigval :       -5.39     7.74     7.97    23.43    24.19    41.77
eigval :       42.08    42.56    60.82    62.12    66.42    95.55
eigval :       96.02   106.91   108.10   116.79   117.09   134.52
eigval :      135.27   142.78   142.99   174.98   181.39   181.75
eigval :      197.91   198.81   203.28   203.38   258.40   264.99
eigval :      265.29   266.71   273.09   279.91   282.64   297.10
eigval :      300.09   325.34   340.66   340.89   352.27   352.89
eigval :      358.29   361.89   362.15   365.50   374.54   375.79
eigval :      393.97   394.05   420.19   421.91   430.42   430.45
eigval :      441.11   441.33   502.91   504.46   508.67   600.30
eigval :      600.48   604.78   604.91   627.26   627.50   636.88
eigval :      636.99   647.25   647.31   651.09   651.16   653.89
eigval :      653.99   659.27   660.03   668.09   668.21   713.36
eigval :      714.03   722.56   723.19   729.76   730.01   741.00
eigval :      741.73   747.87   748.71   759.82   760.72   770.69
eigval :      770.74   787.36   789.10   798.39   798.40   806.20
eigval :      806.34   812.31   812.41   815.80   819.48   819.66
eigval :      827.96   828.03   836.38   836.61   839.17   839.19
eigval :      842.23   842.31   842.82   842.91   852.51   852.52
eigval :      854.30   854.67   923.57   960.09   960.44   973.17
eigval :      973.26   973.96   977.11   984.84   999.40   999.67
eigval :     1008.70  1012.71  1016.07  1016.94  1031.43  1031.62
eigval :     1063.17  1063.41  1065.57  1066.23  1069.00  1069.64
eigval :     1074.86  1075.34  1082.24  1107.73  1121.78  1122.87
eigval :     1136.09  1145.24  1158.44  1164.98  1179.21  1182.64
eigval :     1184.08  1185.14  1202.17  1205.45  1230.86  1233.75
eigval :     1242.01  1256.25  1260.34  1285.67  1285.89  1305.68
eigval :     1306.07  1339.00  1339.43  1346.98  1347.19  1358.64
eigval :     1364.28  1374.87  1375.33  1383.11  1383.27  1385.95
eigval :     1388.60  1389.01  1396.71  1419.04  1461.77  1464.75
eigval :     1478.73  1480.69  1494.50  1499.68  1505.97  1506.32
eigval :     1509.27  1509.68  1515.36  1515.56  1550.00  1550.43
eigval :     1556.63  1556.90  1560.92  1560.95  1585.89  1585.98
eigval :     1595.03  1595.19  2235.41  2242.14  3077.28  3077.35
eigval :     3078.28  3078.32  3086.02  3086.17  3139.80  3139.83
eigval :     3144.22  3144.58  3154.99  3155.23  3156.35  3156.37
eigval :     3159.41  3159.78  3160.52  3161.21  3168.85  3169.08
eigval :     3171.83  3172.46  3350.26  3350.47  3358.89  3359.11

   temp. (K)  partition function   enthalpy   heat capacity  entropy
                                   cal/mol     cal/K/mol   cal/K/mol   J/K/mol
 298.15  VIB  0.133E+20            24236.465    161.467    151.331
         ROT  0.159E+09              888.752      2.981     40.511
         INT  0.211E+28            25125.217    164.447    191.842
         TR   0.167E+29             1481.254      4.968     45.353
         TOT                       26606.4710   169.4156   237.1949   992.4235

       T/K    H(0)-H(T)+PV         H(T)/Eh          T*S/Eh         G(T)/Eh
   ------------------------------------------------------------------------
    298.15    0.424001E-01    0.611580E+00    0.112699E+00    0.498881E+00
   ------------------------------------------------------------------------

         :::::::::::::::::::::::::::::::::::::::::::::::::::::
         ::                  THERMODYNAMIC                  ::
         :::::::::::::::::::::::::::::::::::::::::::::::::::::
         :: total free energy        -130.228397893627 Eh   ::
         ::.................................................::
         :: total energy             -130.727279207199 Eh   ::
         :: zero point energy           0.569180157285 Eh   ::
         :: G(RRHO) w/o ZPVE           -0.070298843713 Eh   ::
         :: G(RRHO) contrib.            0.498881313572 Eh   ::
         :::::::::::::::::::::::::::::::::::::::::::::::::::::

           -------------------------------------------------
          | TOTAL ENERGY             -130.727279207199 Eh   |
          | TOTAL ENTHALPY           -130.115698939509 Eh   |
          | TOTAL FREE ENERGY        -130.228397893627 Eh   |
          | GRADIENT NORM               0.000215188184 Eh/α |
          | HOMO-LUMO GAP               1.401842536940 eV   |
           -------------------------------------------------

 * finished run on 2021/11/18 at 17:18:11.372
